LAMMPS (15 Sep 2022)
OMP_NUM_THREADS environment is not set. Defaulting to 1 thread. (src/comm.cpp:98)
  using 1 OpenMP thread(s) per MPI task
Lattice spacing in x,y,z = 1.6795962 1.6795962 1.6795962
Created orthogonal box = (0 0 0) to (16.795962 16.795962 16.795962)
  1 by 2 by 2 MPI processor grid
Created 4000 atoms
  using lattice units in orthogonal box = (0 0 0) to (16.795962 16.795962 16.795962)
  create_atoms CPU = 0.000 seconds
Generated 0 of 0 mixed pair_coeff terms from geometric mixing rule
Neighbor list info ...
  update: every = 20 steps, delay = 0 steps, check = no
  max neighbors/atom: 2000, page size: 100000
  master list distance cutoff = 2.8
  ghost atom cutoff = 2.8
  binsize = 1.4, bins = 12 12 12
  1 neighbor lists, perpetual/occasional/extra = 1 0 0
  (1) pair lj/cut, perpetual
      attributes: half, newton on
      pair build: half/bin/atomonly/newton
      stencil: half/bin/3d
      bin: standard
Setting up Verlet run ...
  Unit style    : lj
  Current step  : 0
  Time step     : 0.005
Per MPI rank memory allocation (min/avg/max) = 4.002 | 4.002 | 4.002 Mbytes
   Step          Temp          E_pair         E_mol          TotEng         Press     
         0   3             -6.7733681      0             -2.2744931     -3.7033504    
        50   1.6842865     -4.8082494      0             -2.2824513      5.5666131    
       100   1.6712577     -4.7875609      0             -2.281301       5.6613913    
       150   1.6444751     -4.7471034      0             -2.2810074      5.8614211    
       200   1.6471542     -4.7509053      0             -2.2807916      5.8805431    
       250   1.6645597     -4.7774327      0             -2.2812174      5.7526089    
Loop time of 0.385713 on 4 procs for 250 steps with 4000 atoms

Performance: 280001.283 tau/day, 648.151 timesteps/s, 2.593 Matom-step/s
94.4% CPU use with 4 MPI tasks x 1 OpenMP threads

MPI task timing breakdown:
Section |  min time  |  avg time  |  max time  |%varavg| %total
---------------------------------------------------------------
Pair    | 0.11441    | 0.11611    | 0.11759    |   0.4 | 30.10
Neigh   | 0.016447   | 0.016665   | 0.016894   |   0.1 |  4.32
Comm    | 0.015288   | 0.057513   | 0.076464   |  10.3 | 14.91
Output  | 0.17592    | 0.19291    | 0.23547    |   5.6 | 50.01
Modify  | 0.0018692  | 0.0019151  | 0.0019654  |   0.1 |  0.50
Other   |            | 0.0006047  |            |       |  0.16

Nlocal:           1000 ave        1008 max         987 min
Histogram: 1 0 0 0 0 0 1 0 1 1
Nghost:        2711.25 ave        2728 max        2693 min
Histogram: 1 0 0 0 0 2 0 0 0 1
Neighs:          37947 ave       38966 max       37338 min
Histogram: 1 1 0 1 0 0 0 0 0 1

Total # of neighbors = 151788
Ave neighs/atom = 37.947
Neighbor list builds = 12
Dangerous builds not checked
Total wall time: 0:00:01
