#     Step Nr.          Time[fs]        Kin.[a.u.]          Temp[K]            Pot.[a.u.]        Cons Qty[a.u.]        UsedTime[s]
         0            0.000000         0.275037913       300.000000000     -1103.004122715     -1102.729084803         0.000000000
         1            0.500000         0.284152218       309.941508420     -1103.012253912     -1102.729310102        46.722461957
         2            1.000000         0.290961123       317.368380494     -1103.033953306     -1102.729867347         8.906162873
         3            1.500000         0.307147368       335.023667850     -1103.060222043     -1102.730478034         8.901885618
         4            2.000000         0.314761763       343.329136422     -1103.077932724     -1102.730760375         8.927789446
         5            2.500000         0.333600603       363.877765091     -1103.090639285     -1102.730824716        10.071593437
         6            3.000000         0.353710128       385.812404910     -1103.095054952     -1102.730584995        10.645040192
         7            3.500000         0.344415575       375.674289671     -1103.094887820     -1102.730271797         9.389939491
         8            4.000000         0.333029418       363.254739744     -1103.094590734     -1102.730135201         9.393379334
         9            4.500000         0.338164930       368.856344683     -1103.097168391     -1102.730203208         9.062237702
        10            5.000000         0.332824913       363.031674565     -1103.099863899     -1102.730272719        13.184073281
        11            5.500000         0.344859697       376.158719869     -1103.105027678     -1102.730381638         9.684305955
        12            6.000000         0.350046246       381.815993580     -1103.108150763     -1102.730454214         9.493585337
        13            6.500000         0.334207032       364.539232172     -1103.110604078     -1102.730491617         9.513223596
        14            7.000000         0.325820202       355.391224468     -1103.113088282     -1102.730529883         9.538585030
        15            7.500000         0.344500481       375.766901857     -1103.112252107     -1102.730499874         9.441213556
        16            8.000000         0.342461170       373.542505658     -1103.113517796     -1102.730519923        10.340726007
        17            8.500000         0.314788920       343.358757253     -1103.112797559     -1102.730492349         9.288608991
        18            9.000000         0.302853362       330.339943768     -1103.112486455     -1102.730463713         9.445052568
        19            9.500000         0.300629779       327.914551457     -1103.111506547     -1102.730383566         9.583053090
        20           10.000000         0.300655593       327.942708364     -1103.113174298     -1102.730367580        12.030566774
        21           10.500000         0.309317398       337.390647411     -1103.117619699     -1102.730377012         9.470154062
        22           11.000000         0.309193450       337.255450071     -1103.123617319     -1102.730452275         9.366841666
        23           11.500000         0.312736514       341.120077976     -1103.129957154     -1102.730585013         9.425577283
        24           12.000000         0.310796743       339.004255512     -1103.134992259     -1102.730674782         9.341710091
        25           12.500000         0.299577935       326.767243832     -1103.136343891     -1102.730707991         9.279837728
        26           13.000000         0.297732480       324.754297419     -1103.135157812     -1102.730691243         9.200744633
        27           13.500000         0.307976207       335.927731868     -1103.132420064     -1102.730586174         9.110336035
        28           14.000000         0.290363121       316.716104986     -1103.130547209     -1102.730437905         9.341791820
        29           14.500000         0.289192066       315.438766328     -1103.131413358     -1102.730366988         9.407535937
        30           15.000000         0.297545839       324.550717315     -1103.132657699     -1102.730400944        11.423059382
        31           15.500000         0.312842303       341.235468749     -1103.134897023     -1102.730541453         9.261846334
        32           16.000000         0.318358540       347.252351541     -1103.136011849     -1102.730642864         9.168393485
        33           16.500000         0.295229714       322.024383869     -1103.136286084     -1102.730653028         9.144464687
        34           17.000000         0.295527824       322.349549652     -1103.134634860     -1102.730592969         9.171326246
        35           17.500000         0.294273141       320.980993077     -1103.132536549     -1102.730545415         9.204245009
        36           18.000000         0.303458424       330.999920146     -1103.132979151     -1102.730600321         9.367216285
        37           18.500000         0.315972223       344.649455680     -1103.129632769     -1102.730566183         9.385300335
        38           19.000000         0.286483200       312.484046758     -1103.124417767     -1102.730480397         9.332360856
        39           19.500000         0.286714485       312.736323305     -1103.122500817     -1102.730363836         9.248326965
        40           20.000000         0.282912595       308.589378019     -1103.126645749     -1102.730376375        12.316118088
        41           20.500000         0.302287860       329.723117384     -1103.135023762     -1102.730492676         9.171283443
        42           21.000000         0.308148002       336.115118588     -1103.143130012     -1102.730668872         9.244812123
        43           21.500000         0.299251121       326.410768163     -1103.149141138     -1102.730775147         9.339981470
        44           22.000000         0.302752140       330.229535613     -1103.156138760     -1102.730866107         9.399679031
        45           22.500000         0.307716890       335.644879626     -1103.161228178     -1102.730910046         9.134178679
        46           23.000000         0.302111176       329.530398129     -1103.165266641     -1102.730953389         9.242270477
        47           23.500000         0.306976509       334.837302874     -1103.169853000     -1102.730992680         9.410594180
        48           24.000000         0.319332959       348.315207656     -1103.173337168     -1102.731005107         9.234859429
        49           24.500000         0.308558130       336.562469508     -1103.176033744     -1102.731001141         9.275592770
        50           25.000000         0.308280407       336.259540457     -1103.176640266     -1102.730978127        12.944379009
        51           25.500000         0.295839160       322.689141482     -1103.175126317     -1102.730899095         9.281261563
        52           26.000000         0.288922040       315.144232934     -1103.176730187     -1102.730941762         9.283855919
        53           26.500000         0.298916599       326.045885582     -1103.176780993     -1102.730962108         9.275375392
        54           27.000000         0.304473664       332.107302760     -1103.178104173     -1102.731006930         9.137840733
        55           27.500000         0.288713789       314.917080919     -1103.176903945     -1102.730974426         9.327829000
        56           28.000000         0.272536808       297.271898294     -1103.177810941     -1102.731003304         9.370156802
        57           28.500000         0.287907449       314.037558990     -1103.177688137     -1102.731053232         9.255172078
        58           29.000000         0.279413313       304.772506479     -1103.173347048     -1102.730990284         9.329665650
        59           29.500000         0.287832363       313.955658497     -1103.169869306     -1102.730930194         9.370313372
        60           30.000000         0.282798861       308.465322021     -1103.166742514     -1102.730871002        13.039132100
        61           30.500000         0.284968298       310.831654094     -1103.166536389     -1102.730895314         9.825995363
        62           31.000000         0.296603732       323.523105364     -1103.165358245     -1102.730882041         9.631519970
        63           31.500000         0.303218967       330.738730741     -1103.164464534     -1102.730880838         9.216918599
        64           32.000000         0.304803498       332.467071401     -1103.163681782     -1102.730871705         9.241611280
        65           32.500000         0.303779885       331.350556940     -1103.160601715     -1102.730829946         9.214261316
        66           33.000000         0.303198586       330.716500077     -1103.155085369     -1102.730674168         9.353958998
        67           33.500000         0.305616057       333.353376998     -1103.153136403     -1102.730583452         9.328976508
        68           34.000000         0.309511657       337.602537190     -1103.154404908     -1102.730613334         9.194846366
        69           34.500000         0.330417252       360.405497606     -1103.158697511     -1102.730677675         9.189367767
        70           35.000000         0.332242155       362.396026406     -1103.162714862     -1102.730716434        13.458927833
        71           35.500000         0.328917791       358.769946999     -1103.165387959     -1102.730710113         9.269770961
        72           36.000000         0.332838931       363.046964766     -1103.169909114     -1102.730754141         9.327603571
        73           36.500000         0.330704817       360.719160912     -1103.172389338     -1102.730760106         9.300652854
        74           37.000000         0.304934227       332.609665855     -1103.173997805     -1102.730791601         9.261007730
        75           37.500000         0.319183231       348.151890866     -1103.177699790     -1102.730926870         9.292410687
        76           38.000000         0.307109665       334.982543138     -1103.178738859     -1102.730957394         9.348688252
        77           38.500000         0.299749432       326.954305111     -1103.178092411     -1102.730911342         9.235056765
        78           39.000000         0.306890572       334.743566282     -1103.175882676     -1102.730819112         9.266303357
        79           39.500000         0.303551411       331.101346461     -1103.172405051     -1102.730709037         9.231607456
        80           40.000000         0.290324465       316.673940492     -1103.167848001     -1102.730586528        11.890632030
        81           40.500000         0.303858731       331.436559276     -1103.165737811     -1102.730547688         8.156437598
        82           41.000000         0.288948450       315.173040453     -1103.165547786     -1102.730545108         9.126598578
        83           41.500000         0.300915359       328.226050236     -1103.169587536     -1102.730678797         8.263622764
        84           42.000000         0.304461986       332.094564980     -1103.174097711     -1102.730868946         8.527137134
        85           42.500000         0.307090470       334.961606371     -1103.175932929     -1102.730991072         9.232197165
        86           43.000000         0.299065656       326.208471023     -1103.177507874     -1102.731044975         9.255891427
        87           43.500000         0.299576032       326.765167857     -1103.178532459     -1102.731083054         9.397307683
        88           44.000000         0.308550957       336.554644902     -1103.177546755     -1102.731025255         8.438015092
        89           44.500000         0.300076434       327.310985110     -1103.173377470     -1102.730916190         9.514309153
        90           45.000000         0.296585802       323.503548008     -1103.169080289     -1102.730826623        12.547839895
        91           45.500000         0.291716936       318.192790046     -1103.166520794     -1102.730769973         8.280565836
        92           46.000000         0.288936190       315.159667335     -1103.164723947     -1102.730739558         9.279133402
        93           46.500000         0.276144827       301.207376681     -1103.162638790     -1102.730679134         9.262666464
        94           47.000000         0.266752381       290.962483703     -1103.162579175     -1102.730663991         9.326984517
        95           47.500000         0.279842896       305.241077293     -1103.166725307     -1102.730734128         9.318177637
        96           48.000000         0.282312357       307.934663984     -1103.168883469     -1102.730734327         9.442158218
        97           48.500000         0.290688373       317.070875758     -1103.169460763     -1102.730673075         9.682257891
        98           49.000000         0.290422441       316.780808050     -1103.168369259     -1102.730605219         9.441392325
        99           49.500000         0.299014216       326.152361791     -1103.168057861     -1102.730590584         9.261603050
       100           50.000000         0.265717505       289.833683713     -1103.167264180     -1102.730586898        13.314069092
       101           50.500000         0.272904627       297.673100427     -1103.168705024     -1102.730581575         8.336969253
       102           51.000000         0.292806608       319.381359241     -1103.172494512     -1102.730625438         9.197132289
       103           51.500000         0.289573679       315.855013521     -1103.172189973     -1102.730563197         8.305147309
       104           52.000000         0.284583840       310.412303325     -1103.172625562     -1102.730550622         8.210217129
       105           52.500000         0.277049870       302.194559937     -1103.172340225     -1102.730527817         8.217325460
       106           53.000000         0.274830387       299.773640178     -1103.176810985     -1102.730642143         8.974787638
       107           53.500000         0.281363470       306.899656673     -1103.183477969     -1102.730782185         8.081669852
       108           54.000000         0.283481866       309.210315962     -1103.189812729     -1102.730927746         8.161629863
       109           54.500000         0.294425695       321.147392292     -1103.195793358     -1102.730988320         9.505342927
       110           55.000000         0.287243328       313.313162929     -1103.196365400     -1102.730947370        11.611193992
       111           55.500000         0.281594682       307.151853013     -1103.194561390     -1102.730885839         8.267980289
       112           56.000000         0.291712844       318.188326962     -1103.191636322     -1102.730826142         8.348822366
       113           56.500000         0.281869395       307.451498546     -1103.188714200     -1102.730780807         8.483500510
       114           57.000000         0.283068624       308.759568757     -1103.186175523     -1102.730708831         9.134146422
       115           57.500000         0.290104782       316.434318833     -1103.185571292     -1102.730643870         9.331790045
       116           58.000000         0.291993333       318.494272532     -1103.185460721     -1102.730607093         9.206352558
       117           58.500000         0.276503858       301.598992723     -1103.188773348     -1102.730706407         9.431281991
       118           59.000000         0.296817465       323.756237051     -1103.192935460     -1102.730816613         8.202946775
       119           59.500000         0.310017912       338.154739349     -1103.194717054     -1102.730889541         8.382515825
       120           60.000000         0.305404515       333.122635925     -1103.194861947     -1102.730861514        11.478915405
       121           60.500000         0.294295217       321.005072937     -1103.194764396     -1102.730828115         8.576741073
       122           61.000000         0.300859732       328.165374938     -1103.194745135     -1102.730809294         8.359520201
       123           61.500000         0.290574016       316.946140179     -1103.196032356     -1102.730815722         8.385658368
       124           62.000000         0.295830759       322.679978834     -1103.196837487     -1102.730824301         8.840819165
       125           62.500000         0.294436797       321.159502630     -1103.198588869     -1102.730848920         8.472913224
       126           63.000000         0.300234394       327.483281894     -1103.198845962     -1102.730780141         8.497583669
       127           63.500000         0.310525880       338.708809587     -1103.201020706     -1102.730759986         8.421762642
       128           64.000000         0.304280677       331.896800337     -1103.199524292     -1102.730664800         8.367501441
       129           64.500000         0.309637825       337.740156501     -1103.200131303     -1102.730636595         8.265245136
       130           65.000000         0.315362082       343.983939341     -1103.201193584     -1102.730657402        12.742731035
       131           65.500000         0.297179146       324.150743201     -1103.203123307     -1102.730707801         8.724376321
       132           66.000000         0.298129241       325.187067825     -1103.204869115     -1102.730760461         8.780652937
       133           66.500000         0.304813854       332.478367343     -1103.203535962     -1102.730757261         8.895121574
       134           67.000000         0.298985199       326.120711593     -1103.201711412     -1102.730733081         8.274800569
       135           67.500000         0.301237018       328.576902737     -1103.199983063     -1102.730674724         8.662297249
       136           68.000000         0.296990796       323.945299110     -1103.197356729     -1102.730541349         8.537273813
       137           68.500000         0.306119681       333.902710132     -1103.196884869     -1102.730478897         9.255044237
       138           69.000000         0.287322958       313.400020366     -1103.198882577     -1102.730538979         8.490330238
       139           69.500000         0.279133839       304.467667461     -1103.202384997     -1102.730639307         8.390849870
       140           70.000000         0.299739403       326.943366113     -1103.208561952     -1102.730829360        12.603724528
       141           70.500000         0.290762258       317.151466409     -1103.210388045     -1102.730909987         8.692357253
       142           71.000000         0.300847842       328.152405163     -1103.208517918     -1102.730930294         9.456260387
       143           71.500000         0.281988797       307.581737302     -1103.203054137     -1102.730830755         8.305556126
       144           72.000000         0.287210198       313.277025918     -1103.197842546     -1102.730656014         8.282096982
       145           72.500000         0.286507304       312.510338352     -1103.192551674     -1102.730458824         8.340191331
       146           73.000000         0.276344843       301.425545883     -1103.190898487     -1102.730445766         8.428512521
       147           73.500000         0.282443500       308.077708698     -1103.191331469     -1102.730569730         8.262760248
       148           74.000000         0.277468495       302.651178629     -1103.192898857     -1102.730683388         8.360559084
       149           74.500000         0.289346346       315.607048514     -1103.193755548     -1102.730730511         8.486567609
       150           75.000000         0.289378828       315.642478314     -1103.196083257     -1102.730793472        11.207764201
       151           75.500000         0.295778219       322.622670074     -1103.198244221     -1102.730824876         8.451496202
       152           76.000000         0.283879412       309.643942365     -1103.197919010     -1102.730761944         8.437995799
       153           76.500000         0.275145247       300.117075551     -1103.194665221     -1102.730614487         8.481124226
       154           77.000000         0.267021976       291.256547406     -1103.192154994     -1102.730511017         8.649080709
       155           77.500000         0.262121845       285.911686581     -1103.194364619     -1102.730500651         9.109070111
       156           78.000000         0.270259039       294.787401942     -1103.199392318     -1102.730578492         8.645695545
       157           78.500000         0.269009410       293.424358800     -1103.209048080     -1102.730763852         9.288901687
       158           79.000000         0.296634635       323.556813450     -1103.217619667     -1102.730932893         9.492217854
       159           79.500000         0.303060830       330.566241180     -1103.220876937     -1102.730964994         9.382072147
       160           80.000000         0.296388037       323.287834643     -1103.218588757     -1102.730889666        12.404236939
       161           80.500000         0.275931420       300.974601149     -1103.213400570     -1102.730741001         8.272115953
       162           81.000000         0.264860119       288.898483057     -1103.208008046     -1102.730581177         9.262956757
       163           81.500000         0.285851468       311.794980217     -1103.204066208     -1102.730464944         8.403729502
       164           82.000000         0.290777011       317.167558556     -1103.203221837     -1102.730455663         9.576656483
       165           82.500000         0.304132524       331.735200932     -1103.204082877     -1102.730547131         8.523075204
       166           83.000000         0.305781150       333.533454100     -1103.207302814     -1102.730677622         8.283977337
       167           83.500000         0.296360673       323.257986881     -1103.209226081     -1102.730723353         9.472563867
       168           84.000000         0.302056896       329.471191657     -1103.210048001     -1102.730753927         9.760294314
       169           84.500000         0.284802631       310.650951799     -1103.205988627     -1102.730697982         8.571381081
       170           85.000000         0.294583213       321.319206489     -1103.200397795     -1102.730632416        11.806948949
       171           85.500000         0.261507132       285.241182753     -1103.193060145     -1102.730493663         8.315334193
       172           86.000000         0.259224708       282.751609043     -1103.189739205     -1102.730400223         9.181453306
       173           86.500000         0.261496446       285.229527280     -1103.190831127     -1102.730408630         9.640627630
       174           87.000000         0.254950628       278.089619464     -1103.193529154     -1102.730464793         9.363856062
       175           87.500000         0.257126692       280.463179961     -1103.198535250     -1102.730582509         9.417816602
       176           88.000000         0.263906950       287.858805238     -1103.205417419     -1102.730722663         9.446373433
       177           88.500000         0.277076760       302.223890796     -1103.210926732     -1102.730828855         8.821463827
       178           89.000000         0.276731069       301.846825517     -1103.212933187     -1102.730821387         8.373614602
       179           89.500000         0.287356623       313.436740629     -1103.213841408     -1102.730787378         9.358697277
       180           90.000000         0.286035306       311.995503064     -1103.213321586     -1102.730706852        13.078500740
       181           90.500000         0.287695115       313.805953523     -1103.211511962     -1102.730652499         9.521438465
       182           91.000000         0.279459491       304.822874953     -1103.214891727     -1102.730739642         9.473611630
       183           91.500000         0.288035554       314.177290249     -1103.215652423     -1102.730744242         8.434170991
       184           92.000000         0.284941776       310.802725643     -1103.216893729     -1102.730764464         8.521269467
       185           92.500000         0.275822079       300.855336110     -1103.217846880     -1102.730821331         8.189138874
       186           93.000000         0.288127000       314.277036241     -1103.216940774     -1102.730829968         8.544738475
       187           93.500000         0.287356388       313.436484809     -1103.215853135     -1102.730836259         8.391373329
       188           94.000000         0.292310499       318.840224714     -1103.212551056     -1102.730750453         8.875303846
       189           94.500000         0.277917709       303.141162814     -1103.209117314     -1102.730673830         9.731252186
       190           95.000000         0.270598201       295.157345825     -1103.204230177     -1102.730581672        13.010534402
       191           95.500000         0.266507787       290.695691448     -1103.200541642     -1102.730526482         9.439040113
       192           96.000000         0.255106765       278.259926955     -1103.202702480     -1102.730614123         8.482911784
       193           96.500000         0.276665801       301.775633060     -1103.202471695     -1102.730628056         9.327385213
       194           97.000000         0.267047248       291.284113451     -1103.203056984     -1102.730635313         9.262773123
       195           97.500000         0.275352917       300.343593885     -1103.204111105     -1102.730616439         9.219318129
       196           98.000000         0.272870037       297.635370730     -1103.204237253     -1102.730611128         9.339085311
       197           98.500000         0.268159038       292.496808118     -1103.204013774     -1102.730612027         8.135494184
       198           99.000000         0.261635167       285.380838038     -1103.204133700     -1102.730598987         8.105659619
       199           99.500000         0.262778773       286.628236661     -1103.203336517     -1102.730531293         9.354194585
       200          100.000000         0.272922761       297.692879913     -1103.201507268     -1102.730470582        12.537492681
       201          100.500000         0.269440836       293.894939929     -1103.197704318     -1102.730393071         9.318926219
       202          101.000000         0.262417059       286.233693875     -1103.196479106     -1102.730395475         8.669263996
       203          101.500000         0.272066790       296.759221841     -1103.193376461     -1102.730312401         8.784051143
       204          102.000000         0.275684046       300.704776063     -1103.193740141     -1102.730268373         8.134140272
       205          102.500000         0.282594885       308.242833350     -1103.194799042     -1102.730221457         8.533419047
       206          103.000000         0.287140465       313.200964712     -1103.200427713     -1102.730323273         8.258670826
       207          103.500000         0.285207892       311.092993679     -1103.209470878     -1102.730514865         8.816035025
       208          104.000000         0.289648741       315.936888856     -1103.216282000     -1102.730692930         8.778477654
       209          104.500000         0.302038721       329.451366564     -1103.220274742     -1102.730794821         8.748159595
       210          105.000000         0.297521510       324.524179521     -1103.219237308     -1102.730775200        13.298529908
       211          105.500000         0.290352104       316.704088159     -1103.214771416     -1102.730611299         8.648324583
       212          106.000000         0.280695110       306.170637748     -1103.208229120     -1102.730354374         8.346617185
       213          106.500000         0.287050536       313.102874211     -1103.206042890     -1102.730233652         8.493770652
       214          107.000000         0.306519700       334.339033478     -1103.208606733     -1102.730280194         8.132631212
       215          107.500000         0.303215520       330.734970394     -1103.215620427     -1102.730452347         9.095467232
       216          108.000000         0.305919936       333.684836279     -1103.224840206     -1102.730679521         8.497645602
       217          108.500000         0.327902903       357.662948722     -1103.233172923     -1102.730864866         8.415819354
       218          109.000000         0.309845669       337.966863492     -1103.236256958     -1102.730938270         8.397050265
       219          109.500000         0.298125641       325.183141292     -1103.234854786     -1102.730922485         8.482243199
       220          110.000000         0.307314459       335.205924446     -1103.230776671     -1102.730800500        13.032126572
       221          110.500000         0.299130125       326.278790944     -1103.227851603     -1102.730685221         8.448061857
       222          111.000000         0.291733318       318.210659242     -1103.227231273     -1102.730623891         8.650689345
       223          111.500000         0.284271462       310.071574836     -1103.227896951     -1102.730641374         8.456976365
       224          112.000000         0.271373728       296.003258871     -1103.227463046     -1102.730679015         8.834774017
       225          112.500000         0.263238453       287.129637125     -1103.228587358     -1102.730722549         8.660816729
       226          113.000000         0.267594684       291.881233954     -1103.227658535     -1102.730662774         8.457441729
       227          113.500000         0.270345845       294.882086560     -1103.228704872     -1102.730606936         8.092996482