ITEM: TIMESTEP
100000
ITEM: NUMBER OF ATOMS
2048
ITEM: BOX BOUNDS pp pp pp
0.0000000000000000e+00 1.6000000000000000e+01
0.0000000000000000e+00 1.6000000000000000e+01
0.0000000000000000e+00 1.6000000000000000e+01
ITEM: ATOMS id type xs ys zs
1983 1 0.881521 0.438664 0.0381203
2033 1 0.447122 0.184141 0.307987
1834 1 0.347457 0.326367 0.0923886
257 1 0.200244 0.0280229 0.0471284
1446 1 0.0670286 0.204248 0.172499
351 1 0.780338 0.0542517 0.493404
1709 1 0.884196 0.321995 0.337422
1011 1 0.430851 0.297797 0.107524
294 1 0.13845 0.0538617 0.288001
1648 1 0.294054 0.20726 0.274876
1323 1 0.91116 0.287407 0.153542
1915 1 0.621049 0.0359969 0.142969
1301 1 0.462453 0.302121 0.433449
779 1 0.94445 0.207981 0.479001
1473 1 0.0918951 0.0473597 0.229946
857 1 0.929527 0.34574 0.367129
841 1 0.425919 0.315258 0.492058
630 1 0.556135 0.258829 0.474125
631 1 0.39135 0.271013 0.457667
1661 1 0.38192 0.444808 0.411783
1880 1 0.356951 0.457423 0.0691903
1174 1 0.985178 0.482584 0.394265
348 1 0.795517 0.33434 0.0225926
337 1 0.151467 0.217852 0.028808
994 1 0.620492 0.466921 0.277452
442 1 0.0821275 0.272332 0.373119
1423 1 0.0178155 0.361896 0.447697
1918 1 0.0862116 0.344517 0.218355
1857 1 0.782552 0.415195 0.45638
1650 1 0.333264 0.287003 0.191785
324 1 0.0523637 0.159308 0.333443
580 1 0.493209 0.0401063 0.0982328
1817 1 0.986372 0.406298 0.162667
1797 1 0.376898 0.0117793 0.351945
1524 1 0.760622 0.0802202 0.0791027
648 1 0.198603 0.252391 0.0853776
891 1 0.962081 0.33007 0.0881446
928 1 0.0502672 0.210878 0.0375489
512 1 0.223302 0.337943 0.0494386
1578 1 0.844526 0.119759 0.402884
1076 1 0.506071 0.47567 0.0348449
761 1 0.108434 0.146567 0.0961255
892 1 0.711093 0.233035 0.236153
86 1 0.531747 0.0379905 0.376512
35 1 0.997213 0.354354 0.0342966
1681 1 0.483822 0.0584268 0.40921
1631 1 0.596599 0.0671345 0.0671499
1799 1 0.413181 0.100352 0.388203
698 1 0.142199 0.340661 0.262779
1332 1 0.799269 0.477576 0.0649605
1945 1 0.491333 0.152043 0.430794
340 1 0.101131 0.0679113 0.42488
182 1 0.725132 0.395356 0.0335876
219 1 0.871486 0.0617137 0.26507
312 1 0.638121 0.318821 0.45728
1942 1 0.147671 0.08405 0.117797
415 1 0.570471 0.408328 0.0768639
1445 1 0.892099 0.178563 0.0899915
306 1 0.569642 0.467479 0.0857715
1068 1 0.728774 0.057029 0.34001
479 1 0.557682 0.423595 0.496227
786 1 0.676601 0.445568 0.246891
879 1 0.422052 0.418092 0.369395
1318 1 0.82024 0.458386 0.409206
1501 1 0.0361748 0.0585461 0.393154
691 1 0.9312 0.0902198 0.309512
592 1 0.430327 0.127366 0.0396947
924 1 0.913086 0.299955 0.441321
815 1 0.270804 0.314841 0.289292
416 1 0.17574 0.432375 0.163551
142 1 0.699672 0.0177171 0.133023
101 1 0.448367 0.232404 0.0469893
1738 1 0.317869 0.151716 0.106896
933 1 0.27159 0.109753 0.271299
1474 1 0.733783 0.239954 0.147459
1075 1 0.186773 0.486332 0.207004
923 1 0.79056 0.446599 0.150317
889 1 0.91775 0.0618716 0.164264
1158 1 0.432427 0.0931591 0.0982079
1996 1 0.993598 0.272901 0.152195
1180 1 0.713083 0.424023 0.203578
1547 1 0.122006 0.0491373 0.0222083
419 1 0.381487 0.0730675 0.248097
1666 1 0.0778175 0.24023 0.315004
742 1 0.752997 0.0269469 0.030935
586 1 0.183294 0.267228 0.366569
803 1 0.688615 0.0305525 0.19125
165 1 0.887351 0.315074 0.226533
495 1 0.104942 0.203998 0.386406
1683 1 0.519092 0.114499 0.256199
13 1 0.595922 0.501497 0.458984
724 1 0.737474 0.15086 0.195572
1329 1 0.87101 0.414546 0.101436
1949 1 0.542951 0.0782203 0.0327071
618 1 0.172756 0.408465 0.394839
771 1 0.69007 0.403631 0.143955
532 1 0.156344 0.384904 0.319707
412 1 0.969334 0.108954 0.265472
1886 1 0.223776 0.121305 0.465224
749 1 0.223701 0.25121 0.40985
1551 1 0.967591 0.19045 0.124164
1042 1 0.00342294 0.274072 0.423903
445 1 0.109053 0.280467 0.0434012
1928 1 0.285975 0.0673496 0.314547
707 1 0.747232 0.449401 0.273037
1577 1 0.450653 0.455724 0.0188284
295 1 0.00481609 0.272602 0.279666
1293 1 0.288278 0.208496 0.128579
1310 1 0.833229 0.0808063 0.108267
1831 1 0.251105 0.469968 0.0450745
395 1 0.135543 0.488815 0.262966
701 1 0.891798 0.230095 0.135111
1690 1 0.132117 0.250805 0.336473
1955 1 0.165832 0.283128 0.294875
485 1 0.284212 0.0686167 0.0929092
1790 1 0.938204 0.27382 0.230483
425 1 0.526965 0.390621 0.0371442
1922 1 0.890228 0.359432 0.169669
1563 1 0.342983 0.354263 0.442716
504 1 0.165915 0.376727 0.133287
788 1 0.343263 0.374383 0.153017
568 1 0.593948 0.227037 0.127599
398 1 0.459134 0.189105 0.102628
1087 1 0.256948 0.226282 0.0578477
177 1 0.737373 0.371058 0.118853
1210 1 0.403515 0.425824 0.201834
651 1 0.118551 0.248067 0.268917
236 1 0.775845 0.389208 0.383252
276 1 0.626711 0.118608 0.28506
1138 1 0.308676 0.337095 0.349205
1484 1 0.890816 0.268896 0.0868505
382 1 0.866299 0.498437 0.0240256
362 1 0.184097 0.344211 0.211334
549 1 0.826746 0.351166 0.160649
823 1 0.419321 0.472265 0.165054
1950 1 0.551546 0.493596 0.213898
1058 1 0.706288 0.335453 0.495386
869 1 0.53344 0.057989 0.459648
931 1 0.37333 0.340291 0.0380574
1715 1 0.580759 0.225015 0.359274
756 1 0.719217 0.159925 0.127264
522 1 0.630942 0.0844943 0.0155232
1778 1 0.240015 0.205896 0.46649
893 1 0.266937 0.299935 0.17812
1231 1 0.576469 0.190739 0.414431
1296 1 0.707801 0.161532 0.256876
1033 1 0.219417 0.127348 0.144366
305 1 0.275822 0.0544664 0.20648
628 1 0.274824 0.492239 0.48508
626 1 0.0786875 0.371682 0.0201101
1688 1 0.76447 0.0986162 0.204612
1188 1 0.836011 0.0597936 0.167145
1070 1 0.700582 0.244448 0.0147313
624 1 0.269535 0.00989684 0.363857
64 1 0.491952 0.376907 0.282008
66 1 0.721274 0.41445 0.35599
1745 1 0.848387 0.122407 0.0662287
176 1 0.767547 0.18793 0.251062
533 1 0.821559 0.441348 0.016655
1581 1 0.262363 0.406548 0.422013
1939 1 0.516662 0.320386 0.139853
1419 1 0.856268 0.222708 0.0619711
1022 1 0.443466 0.364126 0.319041
9 1 0.934433 0.426146 0.213877
1470 1 0.9142 0.141139 0.229478
114 1 0.647829 0.00704942 0.016405
1298 1 0.325568 0.412111 0.417555
282 1 0.84427 0.321665 0.109182
582 1 0.327572 0.154676 0.278456
672 1 0.233053 0.167255 0.0832466
263 1 0.286739 0.0220811 0.484491
1379 1 0.0569675 0.35013 0.142658
1305 1 0.989648 0.450118 0.256417
32 1 0.0795857 0.491196 0.0352626
882 1 0.354188 0.207906 0.13314
1830 1 0.229687 0.311568 0.349336
727 1 0.553049 0.0717118 0.294737
1872 1 0.720189 0.473173 0.141958
220 1 0.65723 0.302859 0.128974
1017 1 0.819363 0.153322 0.116359
1043 1 0.0803864 0.133032 0.268611
693 1 0.400063 0.141733 0.104869
249 1 0.785356 0.302519 0.0770818
1334 1 0.905703 0.323169 0.0606888
302 1 0.225953 0.366204 0.140796
1803 1 0.549494 0.163207 0.076855
616 1 0.128495 0.252675 0.139592
1592 1 0.162073 0.0332651 0.411241
983 1 0.649859 0.122012 0.101807
594 1 0.307651 0.398966 0.199719
491 1 0.492486 0.155843 0.22477
1655 1 0.346298 0.158596 0.363815
1028 1 0.87628 0.496508 0.326928
1989 1 0.795458 0.0747443 0.313742
957 1 0.917142 0.372039 0.430583
661 1 0.956507 0.360808 0.219529
1840 1 0.054801 0.308744 0.0820729
1838 1 0.201178 0.1353 0.258686
1505 1 0.219374 0.365409 0.313149
1543 1 0.0235951 0.141164 0.0217264
847 1 0.385154 0.327961 0.294814
1236 1 0.640041 0.22226 0.056462
127 1 0.506797 0.284465 0.344274
547 1 0.763209 0.245485 0.278899
1668 1 0.668918 0.0890023 0.364655
298 1 0.698576 0.326552 0.0613088
1391 1 0.301875 0.105716 0.0473515
583 1 0.210327 0.32727 0.262457
110 1 0.985111 0.28423 0.00363539
331 1 0.518912 0.218708 0.338768
1855 1 0.0243401 0.462899 0.0826639
1597 1 0.82832 0.385537 0.0524793
1408 1 0.899871 0.361007 0.267346
120 1 0.915994 0.117234 0.0821246
810 1 0.39995 0.157515 0.265481
1038 1 0.418924 0.212828 0.210172
1416 1 0.060647 0.410349 0.161901
1596 1 0.68482 0.490166 0.011352
1044 1 0.22851 0.396996 0.37119
502 1 0.821643 0.310623 0.374128
376 1 0.00545822 0.493289 0.138103
829 1 0.495305 0.384636 0.159266
119 1 0.6768 0.36438 0.439671
875 1 0.428552 0.405219 0.441401
1454 1 0.864057 0.178981 0.163809
316 1 0.465239 0.465985 0.395758
1073 1 0.108808 0.164312 0.0287669
1331 1 0.369328 0.243495 0.0685852
960 1 0.662978 0.490707 0.16311
913 1 0.59556 0.39796 0.256058
238 1 0.667953 0.0924644 0.434778
152 1 0.0281837 0.162326 0.124048
1104 1 0.757037 0.167502 0.432745
143 1 0.614272 0.426982 0.0385622
632 1 0.181224 0.289895 0.0390058
20 1 0.854082 0.195055 0.325664
998 1 0.482487 0.34927 0.392127
1818 1 0.775392 0.414199 0.0643195
1440 1 0.576094 0.347135 0.0527033
900 1 0.929043 0.47318 0.160619
813 1 0.326423 0.130227 0.180352
673 1 0.673895 0.302172 0.261466
459 1 0.768409 0.19148 0.103526
1771 1 0.225828 0.188411 0.153965
545 1 0.434161 0.230759 0.443377
1583 1 0.123873 0.355567 0.445601
683 1 0.899383 0.0159633 0.390879
2040 1 0.171685 0.112148 0.436893
2042 1 0.65028 0.366599 0.107878
1846 1 0.527429 0.354322 0.33173
1517 1 0.0935313 0.053108 0.140537
690 1 0.692621 0.25734 0.347655
884 1 0.37712 0.247845 0.171676
941 1 0.273232 0.264213 0.249714
1753 1 0.202393 0.0544589 0.248323
564 1 0.108994 0.329288 0.0924378
1294 1 0.898076 0.00341496 0.33238
1787 1 0.541477 0.434676 0.135342
136 1 0.962634 0.389944 0.30077
1368 1 0.321243 0.271668 0.318167
1674 1 0.245545 0.428919 0.315798
74 1 0.286221 0.122063 0.345166
919 1 0.170698 0.340273 0.394827
511 1 0.577636 0.0370518 0.240616
204 1 0.486958 0.156273 0.044045
1565 1 0.162357 0.363838 0.0664642
343 1 0.226609 0.449864 0.454309
458 1 0.351472 0.0536991 0.38361
1265 1 0.391117 0.439952 0.501523
1568 1 0.696834 0.262217 0.487289
168 1 0.126856 0.486417 0.145884
535 1 0.404202 0.447152 0.313837
118 1 0.723256 0.241792 0.402936
764 1 0.00972987 0.146244 0.222034
1954 1 0.07675 0.00759728 0.0802783
1177 1 0.700681 0.0452267 0.398036
1723 1 0.443642 0.0821575 0.166762
1743 1 0.0829316 0.454718 0.255703
185 1 0.859679 0.0754117 0.357197
394 1 0.103187 0.435243 0.0886316
695 1 0.560359 0.100834 0.365927
327 1 0.682974 0.366366 0.243393
1809 1 0.16037 0.292981 0.433003
315 1 0.642466 0.4533 0.49143
1552 1 0.758684 0.379041 0.190963
1876 1 0.599088 0.281575 0.401023
633 1 0.829015 0.263014 0.16221
557 1 0.923827 0.0293326 0.447708
335 1 0.440977 0.240209 0.374432
1783 1 0.759106 0.257294 0.212383
520 1 0.607334 0.0876887 0.48093
484 1 0.998048 0.0515481 0.315263
712 1 0.43219 0.0257976 0.0590238
1317 1 0.358972 0.211888 0.402677
1985 1 0.546555 0.252354 0.057545
1352 1 0.303982 0.341262 0.228539
268 1 0.845286 0.425809 0.465834
1656 1 0.801397 0.24701 0.0365002
1302 1 0.608351 0.496732 0.0424065
397 1 0.746496 0.282119 0.0274312
1966 1 0.519228 0.2155 0.019651
1883 1 0.389461 0.331718 0.173562
1557 1 0.564792 0.178206 0.260797
132 1 0.317482 0.445912 0.474825
244 1 0.449398 0.448386 0.272849
973 1 0.681127 0.192947 0.418787
1962 1 0.960714 0.200995 0.0251401
1067 1 0.649783 0.195845 0.00119141
420 1 0.986412 0.321776 0.386236
1965 1 0.892685 0.05393 0.107815
1884 1 0.570028 0.177406 0.193607
529 1 0.287345 0.16475 0.0514123
1538 1 0.347987 0.400064 0.31177
1160 1 0.0603793 0.162912 0.393278
1864 1 0.365294 0.105473 0.00329646
984 1 0.573699 0.150031 0.313376
1909 1 0.396985 0.0423547 0.113717
949 1 0.440802 0.462787 0.458329
1015 1 0.592914 0.358928 0.158232
1731 1 0.818626 0.155979 0.216077
1933 1 0.266304 0.125086 0.404847
1570 1 0.630946 0.0863451 0.214437
1456 1 0.169915 0.26609 0.206675
1519 1 0.83239 0.257275 0.34748
224 1 0.744608 0.299292 0.12719
1793 1 0.0467462 0.214841 0.233003
1411 1 0.600707 0.478747 0.342287
782 1 0.860754 0.211373 0.391597
534 1 0.509964 0.457499 0.285974
725 1 0.0715476 0.066935 0.300421
1702 1 0.98797 0.44568 0.32914
2046 1 0.784406 0.319075 0.197367
802 1 0.54971 0.329064 0.19307
758 1 0.995637 0.221604 0.386409
1611 1 0.113543 0.02252 0.350973
71 1 0.238589 0.472974 0.104709
546 1 0.273956 0.424316 0.264786
1978 1 0.820733 0.0337669 0.0389035
915 1 0.576484 0.236186 0.199407
663 1 0.622777 0.434676 0.213709
1161 1 0.578301 0.126013 0.223787
1198 1 0.457216 0.48253 0.0878343
318 1 0.554121 0.113564 0.114742
2029 1 0.778811 0.266566 0.451352
1931 1 0.0169785 0.355551 0.283781
1425 1 0.861517 0.345446 0.415371
7 1 0.0702713 0.0693302 0.0430881
692 1 0.973027 0.0358155 0.00803166
392 1 0.633093 0.276559 0.33179
1742 1 0.488707 0.259496 0.152355
835 1 0.634504 0.153934 0.35045
1064 1 0.7211 0.133783 0.314474
1147 1 0.554714 0.445017 0.0168432
709 1 0.051902 0.308014 0.261173
2025 1 0.131125 0.101397 0.219207
567 1 0.561924 0.416323 0.19301
130 1 0.489193 0.344041 0.228522
4 1 0.983934 0.0880058 0.0486983
81 1 0.328354 0.26657 0.380775
200 1 0.280657 0.166598 0.482513
1618 1 0.00550717 0.403321 0.0698961
161 1 0.030805 0.315476 0.328821
1126 1 0.516041 0.423072 0.442402
515 1 0.578012 0.311355 0.345003
1071 1 0.806924 0.333334 0.464995
1486 1 0.0520938 0.296423 0.0201688
1476 1 0.209374 0.143922 0.35041
239 1 0.576299 0.490099 0.156736
909 1 0.861046 0.378414 -0.00150441
1360 1 0.291298 0.385556 0.103336
1823 1 0.455184 0.276366 0.276307
430 1 0.231866 0.321816 0.491986
989 1 0.220312 0.233795 0.267333
1228 1 0.0257051 0.0653319 0.482856
1534 1 0.0650877 0.231736 0.426336
774 1 0.0816838 0.400251 0.321646
558 1 0.437608 0.029932 0.374779
669 1 0.0986088 0.133528 0.17861
1756 1 0.813315 0.483868 0.266509
207 1 0.881507 0.276592 0.388533
1716 1 0.962191 0.00753083 0.189589
826 1 0.790422 0.0276114 0.221794
901 1 0.264984 0.417261 0.147312
572 1 0.354329 0.178832 0.0433122
407 1 0.509035 0.211033 0.419914
1821 1 0.954859 0.316568 0.302699
383 1 0.896603 0.422792 0.289433
41 1 0.957989 0.450594 0.110407
73 1 0.85393 0.265488 0.251046
1555 1 0.46478 0.403826 0.108259
1993 1 0.252128 0.190277 0.358531
1975 1 0.661035 0.342676 0.379487
1256 1 0.451098 0.372099 0.490092
573 1 0.379993 0.357371 0.367088
198 1 0.480686 0.258619 0.487057
1144 1 0.54885 0.400797 0.397516
1582 1 0.617211 0.281357 0.167875
948 1 0.711673 0.0444984 0.460994
1130 1 0.629408 0.0436479 0.378667
1483 1 0.974381 0.0768673 0.406505
1342 1 0.671151 0.0168036 0.333101
470 1 0.949588 0.343415 0.164417
886 1 0.74047 0.313722 0.393214
1415 1 0.746723 0.302556 0.25951
2031 1 0.982397 0.199756 0.183837
1887 1 0.166587 0.158793 0.170868
150 1 0.698523 0.450693 0.463259
1385 1 0.793111 0.193121 0.311842
2026 1 0.696884 0.165405 0.0625458
354 1 0.758593 0.0316224 0.279719
171 1 0.410357 0.0082901 0.488344
1480 1 0.449119 0.173724 0.383561
355 1 0.319001 0.176876 0.223267
304 1 0.198108 0.178056 0.432519
191 1 0.350996 0.0209276 0.168256
121 1 0.400492 0.261862 0.310445
373 1 0.0952716 0.277326 0.456278
404 1 0.909014 0.485541 0.389842
1971 1 0.0942945 0.123354 0.462081
367 1 0.292425 0.181184 0.407224
1628 1 0.355565 0.181741 0.456131
1333 1 0.799753 0.115027 0.481191
619 1 0.38087 0.0820611 0.318692
1734 1 0.260168 0.296865 0.4357
321 1 0.169997 0.207282 0.37612
1780 1 0.0306439 0.389947 0.385804
968 1 0.515255 0.288918 0.0107241
1735 1 0.423932 0.30501 0.361098
1260 1 0.848757 0.387293 0.307219
195 1 0.920737 0.194124 0.394229
1262 1 0.22709 0.236369 0.203425
1227 1 0.516454 0.435883 0.353817
784 1 0.543915 0.342334 0.417105
1133 1 0.951785 0.138856 0.183136
1605 1 0.51363 0.404134 0.234578
1190 1 0.0572919 0.480912 0.312201
1316 1 0.788739 0.444733 0.327622
723 1 0.697741 0.347935 0.30145
1275 1 0.974966 0.461414 0.0360543
1439 1 0.764374 0.124572 0.0265358
868 1 0.371151 0.475371 0.2454
1165 1 0.214803 0.458067 0.389727
432 1 0.898311 0.498877 0.255679
1166 1 0.693071 0.100111 0.185209
2006 1 0.668126 0.438374 0.0611907
106 1 0.507405 0.266286 0.212068
767 1 0.878488 0.207496 0.274312
369 1 0.174505 0.320724 0.128633
849 1 0.80343 0.227571 0.40596
1636 1 0.983184 0.109448 0.333643
248 1 0.815251 0.0209151 0.114764
1899 1 0.645939 0.147116 0.198565
15 1 0.594017 0.0124671 0.463188
1875 1 0.240128 0.120551 0.216307
1708 1 0.926573 0.401108 0.126059
147 1 0.215979 0.0751027 0.113629
838 1 0.860928 0.134868 0.28705
1664 1 0.610971 0.383656 0.380693
686 1 0.935142 0.226755 0.2936
744 1 0.15358 0.0892892 0.385102
1621 1 0.0185465 0.0502714 0.184704
1205 1 0.239375 0.294943 0.111545
526 1 0.893902 0.40651 0.385853
1306 1 0.0998858 0.392698 0.265527
1741 1 0.60445 0.138256 0.0365789
894 1 0.126674 0.428297 0.345125
1849 1 0.61674 0.213774 0.239673
798 1 0.913089 0.165516 0.304867
370 1 0.0672931 0.284569 0.196375
680 1 0.829723 0.404229 0.219419
1271 1 0.673948 0.262827 0.430385
2020 1 0.158497 0.152751 0.313539
1851 1 0.490578 0.349 0.0119233
649 1 0.516346 0.255025 0.283225
1449 1 0.587324 0.251617 0.297694
696 1 0.194237 0.475225 0.305393
1865 1 0.876465 0.06267 0.430507
23 1 0.445729 0.130976 0.481266
281 1 0.950938 0.0423845 0.278667
1859 1 0.287357 0.0184092 0.157406
2030 1 0.97906 0.423499 0.435463
850 1 0.0625565 0.445626 0.37676
68 1 0.430073 0.0163169 0.159794
43 1 0.80296 0.00709344 0.447044
1229 1 0.393164 0.280911 0.0292979
349 1 0.5115 0.169733 0.30208
51 1 0.0182722 0.118524 0.428288
1240 1 0.988368 0.0223027 0.441329
448 1 0.814485 0.00501161 0.299794
386 1 0.216787 0.0131223 0.395602
622 1 0.445553 0.123169 0.325807
947 1 0.564489 0.0627785 0.185693
463 1 0.0939569 0.483044 0.197715
542 1 0.145538 0.436734 0.0153812
1765 1 0.94981 0.478052 0.446003
1929 1 0.0846147 0.243416 0.0918589
610 1 0.184508 0.0290079 0.153915
465 1 0.768587 0.0352988 0.38499
208 1 0.0351611 0.474058 0.189459
264 1 0.654217 0.346279 0.0220555
566 1 0.364399 0.037402 0.0608169
1764 1 0.107792 0.492224 0.369711
1874 1 0.365044 0.0983535 0.459368
1658 1 0.475336 0.192847 0.486438
390 1 0.264453 0.0611622 0.033098
402 1 0.369796 0.0254377 0.439569
2028 1 0.874148 0.481377 0.457939
1372 1 0.964389 0.333306 0.477826
1997 1 0.15466 0.321311 0.485463
1186 1 0.178084 0.486039 0.463411
605 1 0.871576 0.126359 0.00798353
1045 1 0.186515 0.493294 0.0745522
1673 1 0.895643 0.392743 0.484521
912 1 0.850785 0.0142552 0.233563
34 1 0.347423 0.0145771 0.229346
1417 1 0.0559887 0.00205248 0.2469
1704 1 0.501589 0.441578 0.498815
226 1 0.106471 0.0439021 0.496042
1336 1 0.746617 0.486476 0.00119576
1343 1 0.304246 0.38057 0.00263083
543 1 0.0950094 0.0283621 0.872774
700 1 0.0090289 0.0310692 0.596715
1156 1 0.420948 0.102854 0.699595
319 1 0.39161 0.356097 0.923101
753 1 0.790333 0.324581 0.902071
1378 1 0.656539 0.132353 0.596243
794 1 0.457581 0.162954 0.929963
929 1 0.508175 0.387926 0.553504
441 1 0.331971 0.500797 0.695528
494 1 0.795673 0.247906 0.618677
1784 1 0.680602 0.0123914 0.559031
1218 1 0.611941 0.189973 0.551526
61 1 0.126411 0.394379 0.655828
942 1 0.349746 0.216652 0.70028
1154 1 0.0608237 0.0327075 0.937267
322 1 0.876502 0.0300409 0.854463
1701 1 0.268513 0.12178 0.832884
139 1 0.558352 0.0471286 0.910147
67 1 0.791088 0.194325 0.987618
1346 1 0.455708 0.082279 0.839672
1462 1 0.151198 0.486349 0.84411
1254 1 0.898042 0.144065 0.578499
1593 1 0.696608 0.0254612 0.988163
1549 1 0.362877 0.14905 0.949148
641 1 0.527319 0.234649 0.643373
1612 1 0.747843 0.0882521 0.53547
1250 1 0.116566 0.43896 0.946514
1248 1 0.60083 0.0604218 0.807907
831 1 0.684824 0.492872 0.646844
1182 1 0.765042 0.202056 0.802673
138 1 0.319314 0.417376 0.560417
1678 1 0.659981 0.42503 0.758086
1977 1 0.15022 0.481223 0.515257
676 1 0.787532 0.0946021 0.715228
361 1 0.32393 0.122367 0.515232
602 1 0.189 0.432855 0.500899
935 1 0.258993 0.00301297 0.921496
739 1 0.35312 0.419009 0.870797
1365 1 0.72297 0.120593 0.66256
186 1 0.878698 0.354208 0.836433
1274 1 0.978858 0.14144 0.733662
1614 1 0.518008 0.0649745 0.843678
855 1 0.893809 0.14876 0.780307
792 1 0.106125 0.440179 0.601777
1586 1 0.80998 0.0515909 0.627145
199 1 0.155664 0.150458 0.910406
667 1 0.111966 0.316878 0.961595
581 1 0.156147 0.0709847 0.837404
482 1 0.894568 0.157827 0.503466
149 1 0.434918 0.325401 0.669915
1403 1 0.930768 0.46177 0.704574
518 1 0.776763 0.387812 0.653819
480 1 0.784051 0.106455 0.778051
1469 1 0.774797 0.154131 0.642273
259 1 0.269697 0.230451 0.687804
679 1 0.0609314 0.313837 0.61222
1953 1 0.18294 0.0918666 0.607141
1957 1 0.303619 0.426613 0.717792
347 1 0.0659577 0.443817 0.688904
438 1 0.90619 0.450303 0.979383
828 1 0.702039 0.0900257 0.988029
1364 1 0.227733 0.224606 0.611359
1622 1 0.959301 0.0728879 0.7192
330 1 0.141527 0.293204 0.812051
1635 1 0.710768 0.222535 0.603991
1733 1 0.63359 0.357925 0.764638
1041 1 0.136197 0.329952 0.688228
1046 1 0.70483 0.373531 0.63625
1695 1 0.633343 0.360177 0.661953
1351 1 0.00269967 0.130504 0.544697
1061 1 0.171328 0.299269 0.569644
1122 1 0.0140505 0.479203 0.811494
1113 1 0.520111 0.241592 0.574444
1528 1 0.128998 0.124223 0.808289
1619 1 0.143569 0.217343 0.570164
1532 1 0.45924 0.159863 0.53581
1763 1 0.449776 0.0702262 0.53408
846 1 0.397906 0.264917 0.783575
1986 1 0.541385 0.494727 0.610677
77 1 0.932822 0.0404717 0.61208
1191 1 0.32928 0.116073 0.752378
1304 1 0.155561 0.0419641 0.536264
1746 1 0.860647 0.206692 0.717947
300 1 0.788679 0.356409 0.561211
1654 1 0.948778 0.40158 0.625532
858 1 0.849813 0.377828 0.594711
995 1 0.706895 0.289739 0.560455
1980 1 0.906165 0.196364 0.989584
1671 1 0.303406 0.159393 0.877061
1685 1 0.686151 0.248846 0.949335
1914 1 0.295902 0.0629521 0.76255
2045 1 0.723201 0.498963 0.823357
527 1 0.324106 0.0232178 0.640748
754 1 0.0191942 0.435118 0.600619
1054 1 0.896399 0.360027 0.658525
684 1 0.221134 0.200312 0.996774
1170 1 0.344149 0.490968 0.551499
134 1 0.556186 0.487948 0.51394
944 1 0.0614961 0.0543561 0.679627
385 1 0.44511 0.315916 0.734038
1724 1 0.762733 0.06127 0.980161
510 1 0.76754 0.028048 0.735156
1194 1 0.58317 0.426447 0.74655
643 1 0.165311 0.122892 0.500645
1477 1 0.982654 0.271541 0.715125
6 1 0.215204 0.0910759 0.87719
1027 1 0.243135 0.389441 0.894732
726 1 0.71113 0.357906 0.570596
1632 1 0.387911 0.408858 0.554046
732 1 0.277231 0.103318 0.586259
255 1 0.364956 0.281947 0.594905
1537 1 0.618417 0.322042 0.824961
60 1 0.372602 0.344597 0.539057
1404 1 0.0153914 0.494265 0.908821
360 1 0.658631 0.332484 0.963457
1460 1 0.701434 0.132813 0.536535
1105 1 0.647978 0.334129 0.569972
578 1 0.883009 0.41932 0.637691
1299 1 0.146382 0.354711 0.82919
1873 1 0.538772 0.139517 0.525882
1149 1 0.741188 0.227304 0.973457
437 1 0.321179 0.0607825 0.567197
1947 1 0.012767 0.20661 0.743376
1952 1 0.304986 0.154924 0.995062
969 1 0.193031 0.0403238 0.917299
596 1 0.612637 0.145389 0.509116
897 1 0.121395 0.0970148 0.539224
962 1 0.405421 0.1759 0.68655
1358 1 0.336315 0.329688 0.80835
192 1 0.791419 0.334963 0.727007
991 1 0.702035 0.456693 0.904437
911 1 0.842609 0.0105367 0.526145
269 1 0.918331 0.460475 0.907721
1960 1 0.0464156 0.333119 0.556325
938 1 0.38323 0.322728 0.975432
1998 1 0.096684 0.332325 0.516325
328 1 0.901205 0.0480896 0.774433
1786 1 0.387447 0.211709 0.510342
1200 1 0.178226 0.275724 0.702366
163 1 0.66181 0.478046 0.584906
1339 1 0.0205955 0.323121 0.826595
117 1 0.789616 0.299925 0.96321
1003 1 0.315562 0.177782 0.74457
336 1 0.356813 0.182299 0.802498
1132 1 0.299194 0.304821 0.591697
431 1 0.134954 0.247211 0.894017
105 1 0.572073 0.340094 0.591722
1613 1 0.707674 0.459606 0.727601
414 1 0.144668 0.221467 0.74416
490 1 0.45245 0.4971 0.60928
613 1 0.256303 0.361568 0.609251
449 1 0.751353 0.414411 0.593415
570 1 0.822724 0.150055 0.755214
1127 1 0.430378 0.467609 0.800692
1189 1 0.10794 0.447929 0.879284
279 1 0.854845 0.426063 0.944397
293 1 0.562255 0.30982 0.649353
2043 1 0.627127 0.0242389 0.934853
575 1 0.352837 0.0401691 0.712281
689 1 0.890939 0.0718454 0.518602
2010 1 0.749659 0.0716563 0.86038
1214 1 0.0491838 0.177384 0.548278
1994 1 0.468475 0.0595303 0.742079
775 1 0.816658 0.443706 0.647186
21 1 0.969908 0.0620698 0.785922
1398 1 0.965747 0.00814803 0.870946
743 1 0.271685 0.412161 0.655082
1034 1 0.981153 0.254422 0.529245
96 1 0.08885 0.270765 0.560866
274 1 0.681256 0.0534948 0.686734
95 1 0.882642 0.278763 0.693842
1221 1 0.197696 0.173116 0.825063
1387 1 0.176364 0.425251 0.943785
2000 1 0.549333 0.268027 0.714124
216 1 0.719003 0.0881842 0.808447
162 1 0.82719 0.157758 0.691752
11 1 0.491809 0.0895793 0.991502
887 1 0.0168097 0.317378 0.658962
922 1 0.905848 0.287898 0.54961
644 1 0.821119 0.324926 0.599833
525 1 0.543027 0.00579137 0.832504
1920 1 0.0835493 0.293753 0.730929
1494 1 0.554739 0.0704995 0.588104
157 1 0.0808041 0.487188 0.820444
1173 1 0.292355 0.490231 0.840637
1048 1 0.452049 0.019515 0.690205
129 1 0.992242 0.144904 0.851107
1788 1 0.90462 0.39054 0.93814
1094 1 0.28318 0.200111 0.932285
954 1 0.601488 0.48115 0.664182
1700 1 0.537669 0.214289 0.879535
705 1 0.773936 0.205174 0.705411
1263 1 0.131182 0.399104 0.791065
107 1 0.991583 0.280713 0.939949
1530 1 0.319209 0.198805 0.613705
544 1 0.819793 0.0422827 0.874631
1587 1 0.677438 0.0164096 0.880615
17 1 0.195765 0.455483 0.62096
757 1 0.801279 0.466869 0.571044
1544 1 0.615312 0.392248 0.833668
1424 1 0.050115 0.294017 0.872279
642 1 0.217088 0.0526276 0.788267
981 1 0.0052996 0.108928 0.794806
1707 1 0.527201 0.128098 0.628887
627 1 0.628126 0.45214 0.82015
1576 1 0.0339365 0.254791 0.581296
787 1 0.859277 0.224577 0.638343
579 1 0.177868 0.452984 0.560543
1523 1 0.296111 0.320405 0.943942
1471 1 0.897603 0.139467 0.951146
230 1 0.214993 0.230413 0.844209
1110 1 0.0116187 0.179532 0.499952
519 1 0.396231 0.118266 0.901937
271 1 0.479546 0.29157 0.688057
111 1 0.397965 0.388714 0.987436
1239 1 0.995576 0.486936 0.647535
1905 1 0.703401 0.121129 0.896267
423 1 0.5274 0.329771 0.517532
1012 1 0.667213 0.165198 0.920444
1601 1 0.484429 0.262742 0.871031
1511 1 0.804655 0.296388 0.656137
1667 1 0.187924 0.23196 0.660887
1729 1 0.202152 0.359202 0.583511
1 1 0.0822941 0.205123 0.591923
1093 1 0.590022 0.0585829 0.530585
1712 1 0.0247282 0.417312 0.832586
1835 1 0.541214 0.301008 0.795291
785 1 0.0868296 0.369391 0.952777
1932 1 0.650998 0.381347 0.61062
1432 1 0.98723 0.0380726 0.539986
1163 1 0.849641 0.346811 0.699861
523 1 0.905188 0.322544 0.927571
1572 1 0.239784 0.181099 0.658427
765 1 0.357369 0.0387794 0.815974
125 1 0.487025 0.169463 0.84619
1437 1 0.625714 0.0404133 0.70422
1092 1 0.14989 0.379958 0.724526
987 1 0.180488 0.323614 0.881222
840 1 0.342509 0.263062 0.865833
1258 1 0.25273 0.305133 0.54637
1203 1 0.426771 0.25692 0.981404
203 1 0.809898 0.3991 0.741663
178 1 0.471408 0.015033 0.599016
141 1 0.758732 0.302708 0.506829
1139 1 0.0916061 0.023512 0.80982
1500 1 0.699372 0.312882 0.677257
1235 1 0.880143 0.0691281 0.585379
1761 1 0.336014 0.408754 0.807328
233 1 0.0555413 0.298214 0.937893
921 1 0.0651472 0.234377 0.519069
104 1 0.075729 0.361889 0.878045
1982 1 0.374271 0.46777 0.832213
123 1 0.765623 0.102784 0.595239
1025 1 0.960453 0.165061 0.627579
1197 1 0.639508 0.184273 0.839451
261 1 0.429399 0.33889 0.56977
1276 1 0.133261 0.254365 0.512598
357 1 0.342603 0.431902 0.990304
776 1 0.748055 0.0553464 0.674553
755 1 0.665021 0.185486 0.648178
1175 1 0.582232 0.157385 0.966813
1238 1 0.860625 0.231545 0.553498
845 1 0.186314 0.0340555 0.980952
1912 1 0.94826 0.323741 0.799269
1762 1 0.0507909 0.160179 0.665902
1525 1 0.601109 0.172163 0.616703
1719 1 0.548817 0.20673 0.940029
990 1 0.568386 0.403567 0.864648
1617 1 0.847893 0.209241 0.809016
1434 1 0.19193 0.378357 0.639557
1112 1 0.265906 0.227426 0.88123
1326 1 0.02361 0.267527 0.794226
62 1 0.300816 0.162783 0.67357
372 1 0.573653 0.139947 0.718226
1467 1 0.751944 0.417296 0.826169
1644 1 0.565717 0.0550524 0.748317
301 1 0.51148 0.0612852 0.686121
89 1 0.697077 0.145419 0.716519
1085 1 0.00999075 0.00724215 0.962099
1836 1 0.686845 0.0218694 0.620324
70 1 0.313832 0.27413 0.518437
1295 1 0.272522 0.249543 0.989121
464 1 0.938197 0.498636 0.625076
780 1 0.502305 0.0376953 0.954172
1553 1 0.646941 0.481849 0.905017
1455 1 0.298172 0.237455 0.76454
506 1 0.783237 0.407123 0.952942
1748 1 0.909182 0.0591865 0.972813
1433 1 0.25853 0.476811 0.781006
50 1 0.114534 0.266304 0.690856
625 1 0.134023 0.209507 0.676486
1381 1 0.579558 0.340153 0.908069
1699 1 0.817009 0.242742 0.940107
1350 1 0.957741 -0.00124483 0.784556
1319 1 0.345662 0.118878 0.656501
993 1 0.0186531 0.0482419 0.8736
1791 1 0.645112 0.388133 0.980087
1268 1 0.79332 0.315032 0.841055
910 1 0.0485429 0.484426 0.543763
513 1 0.0710409 0.182572 0.921177
722 1 0.408315 0.361852 0.759766
730 1 0.090656 0.103834 0.85896
258 1 0.188983 0.103636 0.71637
854 1 0.940124 0.270184 0.903804
965 1 0.417996 0.438405 0.63918
507 1 0.0177662 0.440646 0.515886
1107 1 0.0904707 0.258454 0.787479
326 1 0.986316 0.3421 0.943261
728 1 0.233021 0.254718 0.779526
1468 1 0.216875 0.26225 0.955022
341 1 0.266839 0.0516461 0.856833
1730 1 0.848647 0.481101 0.708767
87 1 0.431734 0.196688 0.843409
890 1 0.651823 0.255378 0.558362
702 1 0.842647 0.27693 0.985712
955 1 0.692436 0.385096 0.703738
650 1 0.758224 0.478702 0.677358
197 1 0.0951798 0.0861843 0.967023
1566 1 0.950992 0.447694 0.811104
457 1 0.426318 0.207112 0.745453
1135 1 0.641603 0.329823 0.898457
371 1 0.847049 0.0916081 0.854848
296 1 0.48349 0.153486 0.785867
1386 1 0.286966 0.269072 0.636955
1035 1 0.747469 0.330939 0.775577
1801 1 0.153971 0.197642 0.951252
36 1 0.462449 0.42158 0.917957
333 1 0.222846 0.325221 0.774556
1327 1 0.323772 0.314438 0.703044
982 1 0.798068 0.256805 0.857927
2008 1 0.204636 0.490025 0.999884
193 1 0.604195 0.189867 0.781712
1558 1 0.233813 0.395447 0.71155
2024 1 0.226384 0.42867 0.978506
656 1 0.920904 0.204988 0.746513
1409 1 0.502761 0.0706414 0.620161
443 1 0.796814 0.461301 0.508663
1047 1 0.595793 0.469724 0.601662
1443 1 0.717466 0.19968 0.862299
427 1 0.87796 0.119129 0.685535
1373 1 0.318609 0.476799 0.616072
1623 1 0.32098 0.203537 0.532141
623 1 0.918664 0.34398 0.603682
389 1 0.139528 0.0422998 0.759135
682 1 0.814506 0.151199 0.584159
1281 1 0.415649 0.368605 0.822925
405 1 0.85441 0.179258 0.95376
671 1 0.0565095 0.438304 0.903727
1201 1 0.24363 0.045508 0.520915
1916 1 0.636682 0.13152 0.667388
1540 1 0.70999 0.398719 0.513763
1488 1 0.596073 0.0779727 0.659513
992 1 0.187763 0.0256743 0.647579
1242 1 0.172101 0.31323 0.630964
1542 1 0.882763 0.358378 0.774364
1594 1 0.234268 0.371065 0.963538
313 1 0.380785 0.00963499 0.869773
456 1 0.211671 0.0894537 0.951215
1461 1 0.285378 0.0513917 0.946461
795 1 0.629797 0.275857 0.940959
146 1 0.803544 0.293578 0.549759
368 1 0.567701 0.325014 0.982264
1407 1 0.0410581 0.227703 0.884345
1755 1 0.355366 0.204303 0.865212
1758 1 0.0669313 0.381542 0.673123
1004 1 0.0990097 0.18172 0.82644
1871 1 0.215111 0.197783 0.723031