LAMMPS (15 Sep 2022)
OMP_NUM_THREADS environment is not set. Defaulting to 1 thread. (src/comm.cpp:98)
  using 1 OpenMP thread(s) per MPI task
Lattice spacing in x,y,z = 1.118034 1.118034 1.118034
Created orthogonal box = (0 0 0) to (8.9442719 8.9442719 8.9442719)
  2 by 2 by 1 MPI processor grid
Created 512 atoms
  using lattice units in orthogonal box = (0 0 0) to (8.9442719 8.9442719 8.9442719)
  create_atoms CPU = 0.001 seconds
Generated 0 of 0 mixed pair_coeff terms from geometric mixing rule
Neighbor list info ...
  update: every = 1 steps, delay = 0 steps, check = yes
  max neighbors/atom: 2000, page size: 100000
  master list distance cutoff = 1.3
  ghost atom cutoff = 1.3
  binsize = 0.65, bins = 14 14 14
  1 neighbor lists, perpetual/occasional/extra = 1 0 0
  (1) pair lj/cut, perpetual
      attributes: half, newton on
      pair build: half/bin/atomonly/newton
      stencil: half/bin/2d
      bin: standard
Setting up Verlet run ...
  Unit style    : lj
  Current step  : 0
  Time step     : 0.01
Per MPI rank memory allocation (min/avg/max) = 3.05 | 3.05 | 3.05 Mbytes
   Step          Temp          E_pair         E_mol          TotEng         Press     
         0   3              0              0              2.9941406      19.1625      
       500   2.8657816      0.71497581     0              3.5751602      100.6778     
      1000   2.7104924      0.69936185     0              3.4045603      101.07245    
      1500   2.8544224      0.65200917     0              3.5008565      96.319857    
      2000   2.7732704      0.6221034      0              3.3899572      92.85053     
      2500   2.822501       0.72347547     0              3.5404638      98.318746    
      3000   2.9348807      0.64689382     0              3.5760423      101.18388    
      3500   3.0485718      0.56591609     0              3.6085336      88.019105    
      4000   3.0891667      0.55254205     0              3.6356752      87.223739    
      4500   2.9148968      0.5799679      0              3.4891715      92.609111    
      5000   2.8255551      0.56814104     0              3.3881775      88.5041      
      5500   3.0360043      0.58900821     0              3.6190828      94.022515    
      6000   3.0954482      0.61040293     0              3.6998053      95.870088    
      6500   2.9474826      0.70272036     0              3.6444462      102.84362    
      7000   3.016682       0.55642406     0              3.5672141      88.857323    
      7500   2.791512       0.62341487     0              3.4094747      93.976762    
      8000   2.8395544      0.57105501     0              3.4050634      89.775106    
      8500   3.0729193      0.73535513     0              3.8022727      103.14652    
ERROR: Lost atoms: original 512 current 504 (src/thermo.cpp:481)
Last command: run ${equil_steps}
--------------------------------------------------------------------------
Primary job  terminated normally, but 1 process returned
a non-zero exit code. Per user-direction, the job has been aborted.
--------------------------------------------------------------------------
--------------------------------------------------------------------------
mpirun detected that one or more processes exited with non-zero status, thus causing
the job to be terminated. The first process to do so was:

  Process name: [[520,1],1]
  Exit code:    1
--------------------------------------------------------------------------
