LAMMPS (15 Sep 2022)
OMP_NUM_THREADS environment is not set. Defaulting to 1 thread. (src/comm.cpp:98)
  using 1 OpenMP thread(s) per MPI task
Lattice spacing in x,y,z = 1.7099759 1.7099759 1.7099759
Created orthogonal box = (0 0 0) to (13.679808 13.679808 13.679808)
  2 by 2 by 2 MPI processor grid
Created 2048 atoms
  using lattice units in orthogonal box = (0 0 0) to (13.679808 13.679808 13.679808)
  create_atoms CPU = 0.000 seconds
Generated 0 of 0 mixed pair_coeff terms from geometric mixing rule
Neighbor list info ...
  update: every = 1 steps, delay = 0 steps, check = yes
  max neighbors/atom: 2000, page size: 100000
  master list distance cutoff = 1.3
  ghost atom cutoff = 1.3
  binsize = 0.65, bins = 22 22 22
  1 neighbor lists, perpetual/occasional/extra = 1 0 0
  (1) pair lj/cut, perpetual
      attributes: half, newton on
      pair build: half/bin/atomonly/newton
      stencil: half/bin/3d
      bin: standard
Setting up Verlet run ...
  Unit style    : lj
  Current step  : 0
  Time step     : 0.01
Per MPI rank memory allocation (min/avg/max) = 3.08 | 3.08 | 3.08 Mbytes
   Step          Temp          E_pair         E_mol          TotEng         Press     
         0   3              0              0              4.4978027      2.3988281    
       500   3.0311374      0.96433043     0              5.5088164      12.250978    
      1000   2.9655091      1.0508109      0              5.4969026      12.728284    
      1500   2.9777296      0.95996448     0              5.424378       12.178516    
      2000   2.9367672      0.94453053     0              5.3475303      11.992737    
      2500   3.0001596      0.96104864     0              5.4590906      12.294293    
      3000   3.0669938      1.0058442      0              5.6040886      12.540429    
      3500   3.0917302      0.90784332     0              5.5431742      11.919462    
      4000   3.0505589      0.95731436     0              5.5309185      12.140531    
      4500   2.8867538      0.94372414     0              5.2717405      11.97938     
      5000   2.9501649      0.99742973     0              5.4205163      12.354421    
      5500   2.9893069      0.96239472     0              5.4441657      12.155266    
      6000   2.9258234      0.9769639      0              5.363556       12.282314    
      6500   2.9677051      0.97926052     0              5.4286446      12.413283    
      7000   2.955384       0.97726791     0              5.4081794      12.205644    
      7500   2.9574147      0.92219658     0              5.3561525      12.058748    
      8000   2.9340119      1.0033681      0              5.402237       12.305184    
      8500   2.9693338      0.98696291     0              5.4387888      12.302441    
      9000   3.0197474      0.9528932      0              5.4803026      12.118022    
      9500   3.0299882      0.95446649     0              5.4972295      12.255346    
     10000   2.9623823      1.0363146      0              5.4777184      12.706095    
     10500   3.0341728      1.0560682      0              5.6051051      12.986954    
     11000   2.9541444      0.98918227     0              5.4182351      12.41759     
     11500   3.0379237      0.92118703     0              5.4758475      11.9648      
     12000   3.0067342      0.96155956     0              5.4694587      12.284432    
     12500   3.0273253      0.97266977     0              5.5114405      12.289086    
     13000   3.0744526      1.0164421      0              5.6258693      12.653085    
     13500   3.0633106      0.88019725     0              5.4729196      11.668601    
     14000   3.0153718      0.9941582      0              5.5150074      12.448962    
     14500   2.9792021      0.95601183     0              5.422633       12.10271     
     15000   2.997569       0.95470009     0              5.4488581      12.209147    
     15500   3.0270168      0.91945946     0              5.4577676      11.882565    
     16000   3.0553802      1.0112109      0              5.5920433      12.50816     
     16500   2.9866794      0.95447169     0              5.4323033      12.176776    
     17000   3.026243       0.93404339     0              5.4711913      12.018428    
     17500   3.0163116      1.0370345      0              5.5592927      12.809157    
     18000   2.9975143      1.0117489      0              5.505825       12.562704    
     18500   3.056998       0.94489125     0              5.5281493      12.138543    
     19000   3.0175864      1.0626405      0              5.5868099      12.922805    
     19500   3.0935569      1.0381643      0              5.6762339      12.76497     
     20000   2.9939402      0.97621014     0              5.4649276      12.303676    
     20500   3.0409098      0.96743988     0              5.5265774      12.157853    
     21000   3.039503       0.99944648     0              5.5564747      12.410249    
     21500   3.1400579      1.0274012      0              5.7351882      12.723255    
     22000   3.0868398      0.96253087     0              5.5905297      12.254212    
     22500   2.9692458      1.0145284      0              5.4662224      12.581557    
     23000   2.9831684      0.94460629     0              5.417174       12.032203    
     23500   3.003831       1.0152512      0              5.5187976      12.519726    
     24000   2.9509626      0.98129063     0              5.4055732      12.30851     
     24500   3.00151        0.90145539     0              5.401522       11.788919    
     25000   2.9388583      0.95488065     0              5.3610155      12.125746    
     25500   3.0016795      0.93856967     0              5.4388905      12.067444    
     26000   2.962963       1.0243848      0              5.4666592      12.640537    
     26500   2.9335617      0.8966906      0              5.2948846      11.671439    
     27000   2.9478052      1.0093253      0              5.4288741      12.438604    
     27500   2.8879598      0.97165506     0              5.3014795      12.032294    
     28000   2.989035       0.98017128     0              5.4615346      12.294733    
     28500   2.9568263      0.97775193     0              5.4108257      12.399329    
     29000   2.9946471      0.96987201     0              5.4596493      12.172298    
     29500   2.9989505      1.0151162      0              5.5113453      12.566353    
     30000   3.0025772      1.0900415      0              5.5917082      13.119337    
     30500   3.0549791      0.95226046     0              5.5324916      12.248804    
     31000   3.0242756      0.97975264     0              5.513951       12.385862    
     31500   3.0653842      0.9837628      0              5.579594       12.538135    
     32000   3.0383038      1.0229061      0              5.5781366      12.708369    
     32500   2.9555426      0.925619       0              5.3567681      11.940579    
     33000   3.0310113      0.9009172      0              5.4452142      11.803409    
     33500   2.9114172      0.95723416     0              5.3222275      12.18472     
     34000   2.9770642      0.97118612     0              5.434602       12.300574    
     34500   2.9300078      0.9888456      0              5.3817113      12.356743    
     35000   2.9988247      0.9564305      0              5.4524711      11.989027    
     35500   2.9471108      0.95283258     0              5.3713403      12.122412    
     36000   2.9778927      0.96729606     0              5.4319541      12.143087    
     36500   2.9896463      0.95084987     0              5.4331296      12.103044    
     37000   2.9715653      0.92895149     0              5.384123       12.04802     
     37500   2.962075       0.98346931     0              5.4244123      12.269549    
     38000   2.9994848      0.95868265     0              5.4557129      12.300152    
     38500   3.0698629      0.95683322     0              5.5593792      12.232422    
     39000   3.0245196      0.91967677     0              5.4542409      11.932387    
     39500   3.0980034      0.99164979     0              5.6363858      12.528941    
     40000   2.9633845      0.99641581     0              5.4393221      12.494726    
     40500   2.9559388      0.95443301     0              5.3861763      12.074506    
     41000   2.9875231      0.93453391     0              5.4136305      11.897885    
     41500   2.9608815      0.94510854     0              5.3842622      12.161635    
     42000   2.9986272      0.97377358     0              5.4695181      12.251543    
     42500   3.103114       0.92518454     0              5.5775828      11.977243    
     43000   2.9662808      0.9878967      0              5.4351453      12.461041    
     43500   2.975679       1.0397846      0              5.5011237      12.689803    
     44000   2.9061057      1.0307251      0              5.3877552      12.511732    
     44500   2.9795845      1.0038507      0              5.4710452      12.620766    
     45000   3.0045126      1.0058162      0              5.5103845      12.539609    
     45500   2.9919664      1.0067727      0              5.4925309      12.474114    
     46000   2.9722522      1.0223371      0              5.4785384      12.589538    
     46500   3.0003683      0.93716991     0              5.4355248      12.103242    
     47000   2.9775124      1.0376999      0              5.5017877      12.594337    
     47500   3.0553498      1.0151374      0              5.5959243      12.512428    
     48000   2.999592       0.91225555     0              5.4094465      11.860925    
     48500   2.9301127      0.97774969     0              5.3707727      12.163388    
     49000   2.9514762      1.0165298      0              5.4415824      12.39467     
     49500   3.0834871      1.0089153      0              5.6318875      12.565001    
     50000   3.0558805      0.9470168      0              5.5285994      12.206157    
Loop time of 3.89543 on 8 procs for 50000 steps with 2048 atoms

Performance: 11089929.409 tau/day, 12835.566 timesteps/s, 26.287 Matom-step/s
99.5% CPU use with 8 MPI tasks x 1 OpenMP threads

MPI task timing breakdown:
Section |  min time  |  avg time  |  max time  |%varavg| %total
---------------------------------------------------------------
Pair    | 0.40053    | 0.40785    | 0.42888    |   1.4 | 10.47
Neigh   | 2.0734     | 2.0831     | 2.0949     |   0.6 | 53.47
Comm    | 0.99269    | 1.0248     | 1.0424     |   1.6 | 26.31
Output  | 0.001337   | 0.0019526  | 0.0061596  |   3.6 |  0.05
Modify  | 0.23136    | 0.23442    | 0.23843    |   0.5 |  6.02
Other   |            | 0.1433     |            |       |  3.68

Nlocal:            256 ave         267 max         244 min
Histogram: 2 0 0 1 0 1 1 2 0 1
Nghost:          424.5 ave         442 max         406 min
Histogram: 1 1 0 0 1 2 1 0 1 1
Neighs:        935.625 ave        1016 max         868 min
Histogram: 1 0 1 2 0 2 1 0 0 1

Total # of neighbors = 7485
Ave neighs/atom = 3.6547852
Neighbor list builds = 20265
Dangerous builds = 0
Generated 0 of 0 mixed pair_coeff terms from geometric mixing rule
Setting up Verlet run ...
  Unit style    : lj
  Current step  : 50000
  Time step     : 0.01
Per MPI rank memory allocation (min/avg/max) = 3.136 | 3.136 | 3.136 Mbytes
   Step          Temp          E_pair         E_mol          TotEng         Press     
     50000   3.0558805      0.9470168      0              5.5285994      12.206157    
     50500   3.0676885      0.97692873     0              5.5762147      12.389693    
     51000   3.0412569      1.0612522      0              5.62091        13.058902    
     51500   2.9290617      0.98932737     0              5.3807746      12.254422    
     52000   2.9743703      0.97302372     0              5.4324007      12.157555    
     52500   2.9765289      0.97681718     0              5.4394305      12.213531    
     53000   2.9735079      0.90992926     0              5.3680133      11.661686    
     53500   2.9456072      0.93804734     0              5.3543008      11.896563    
     54000   2.9297971      0.98051251     0              5.3730623      12.219133    
     54500   2.9161416      0.94530631     0              5.3173829      11.964596    
     55000   2.8595326      0.94307344     0              5.230278       11.870689    
     55500   2.7724461      0.9219352      0              5.0785738      11.635168    
     56000   2.8000796      0.91743862     0              5.1155072      11.600596    
     56500   2.7946191      0.81862087     0              5.0085027      11.059023    
     57000   2.822401       0.87484108     0              5.1063755      11.434181    
     57500   2.8181538      0.96122196     0              5.1863885      12.024975    
     58000   2.7463831      0.90206435     0              5.0196274      11.661953    
     58500   2.7301647      0.94442286     0              5.0376703      11.858157    
     59000   2.6889368      0.75616072     0              4.7875964      10.458334    
     59500   2.6599048      0.85490337     0              4.8428124      11.257336    
     60000   2.6512523      0.90294763     0              4.8778842      11.47241     
     60500   2.6723378      0.86547875     0              4.8720282      11.110538    
     61000   2.6669221      0.9171626      0              4.9155924      11.51424     
     61500   2.6908116      0.85700028     0              4.8912469      11.217558    
     62000   2.6572958      0.86122048     0              4.8452179      11.149168    
     62500   2.7299808      0.82815771     0              4.9211294      11.071957    
     63000   2.6400134      0.9629415      0              4.921028       11.923986    
     63500   2.6456499      0.85327802     0              4.8198152      11.198422    
     64000   2.654487       0.80869666     0              4.7884829      10.779392    
     64500   2.6329184      0.78625161     0              4.7337008      10.725744    
     65000   2.5223037      0.80238105     0              4.5839892      10.530924    
     65500   2.608811       0.69063319     0              4.6019389      9.8404627    
     66000   2.5070995      0.82416525     0              4.5829782      10.833956    
     66500   2.5221187      0.73457341     0              4.5159042      10.12371     
     67000   2.4275972      0.80055077     0              4.4401685      10.562512    
     67500   2.5112841      0.75433982     0              4.5194267      10.238405    
     68000   2.5437584      0.76618312     0              4.5799577      10.459248    
     68500   2.4646681      0.79195878     0              4.4871557      10.479865    
     69000   2.5282847      0.76980651     0              4.5603818      10.210555    
     69500   2.415005       0.73095075     0              4.3516895      9.9956754    
     70000   2.4073595      0.75854564     0              4.3678216      10.240266    
     70500   2.356892       0.81679687     0              4.3504087      10.597788    
     71000   2.3347646      0.73957305     0              4.24001        10.070039    
     71500   2.3755804      0.76462951     0              4.3262602      10.247032    
     72000   2.4003489      0.75345539     0              4.3522207      10.132342    
     72500   2.3873571      0.75777493     0              4.337062       10.128787    
     73000   2.3389287      0.70951549     0              4.2161954      9.7896239    
     73500   2.2851919      0.77501057     0              4.2011247      10.106321    
     74000   2.3075873      0.75811212     0              4.2178029      10.114222    
     74500   2.3677326      0.71074437     0              4.2606091      9.7265799    
     75000   2.4185114      0.64948476     0              4.2754805      9.4828136    
     75500   2.2755165      0.71503932     0              4.1266474      9.700378     
     76000   2.299512       0.71202092     0              4.1596047      9.7509511    
     76500   2.1849419      0.71488543     0              3.9906979      9.5997523    
     77000   2.1704919      0.6876207      0              3.9417689      9.2901849    
     77500   2.1407432      0.67052079     0              3.8800677      9.263946     
     78000   2.1959671      0.65487466     0              3.9472169      9.2270924    
     78500   2.207179       0.63354967     0              3.9427016      9.0388114    
     79000   2.1701054      0.69146983     0              3.9450385      9.4132104    
     79500   2.1520966      0.69628813     0              3.9228567      9.4950828    
     80000   2.1196769      0.669762       0              3.8477248      9.4186674    
     80500   2.1433829      0.68486109     0              3.8983656      9.4447476    
     81000   2.1196268      0.61781335     0              3.7957011      8.8244068    
     81500   2.1110549      0.62166881     0              3.786705       8.8972681    
     82000   2.0884972      0.66019597     0              3.7914121      9.1516244    
     82500   2.072852       0.61835894     0              3.7261187      8.8735868    
     83000   2.0702311      0.67601315     0              3.7798436      9.4406036    
     83500   2.04033        0.65080828     0              3.7098089      9.0440325    
     84000   2.0474055      0.64718464     0              3.7167933      9.0277715    
     84500   2.0569581      0.60866376     0              3.6925944      8.748381     
     85000   2.0121764      0.62248437     0              3.6392752      8.6856483    
     85500   2.0026003      0.62498818     0              3.6274219      8.7371988    
     86000   1.9561406      0.63165973     0              3.5644378      8.8212932    
     86500   1.9741275      0.58333707     0              3.5430823      8.3619412    
     87000   1.9531049      0.56459273     0              3.4928197      8.1968254    
     87500   1.9259524      0.60778838     0              3.4953064      8.5359969    
     88000   1.8778694      0.53610273     0              3.3515314      7.9239749    
     88500   1.8689074      0.52851425     0              3.3305066      7.9380409    
     89000   1.8115583      0.54700488     0              3.2630155      8.0914894    
     89500   1.8270877      0.56618911     0              3.3054824      8.1435528    
     90000   1.8323779      0.55750931     0              3.304734       8.0331642    
     90500   1.8178754      0.5415139      0              3.2669955      7.9870257    
     91000   1.7993436      0.53513699     0              3.2328345      7.8064523    
     91500   1.7910295      0.51685299     0              3.2020854      7.7354346    
     92000   1.7782027      0.51816775     0              3.1841693      7.7969516    
     92500   1.7506449      0.51550563     0              3.1401908      7.6500814    
     93000   1.7083039      0.51750134     0              3.0787061      7.6482249    
     93500   1.7133298      0.51347499     0              3.0822149      7.6843433    
     94000   1.7244565      0.47378414     0              3.0592059      7.3191306    
     94500   1.6706623      0.46622903     0              2.9709989      7.1667677    
     95000   1.6915184      0.46472784     0              3.0007666      7.263466     
     95500   1.6816372      0.4972857      0              3.0185098      7.4395222    
     96000   1.6798762      0.5393221      0              3.057906       7.9033082    
     96500   1.6589957      0.50239343     0              2.989672       7.4663746    
     97000   1.6540663      0.50661158     0              2.9864996      7.5211693    
     97500   1.6268241      0.44444149     0              2.8834861      6.9401503    
     98000   1.5861916      0.45613842     0              2.834264       7.0320494    
     98500   1.5688196      0.47343334     0              2.8255137      7.0871931    
     99000   1.557397       0.44731384     0              2.7822687      6.8991006    
     99500   1.5373906      0.43553041     0              2.7404903      6.8471335    
    100000   1.5248711      0.47266615     0              2.7588559      7.1656613    
    100500   1.5416552      0.43523642     0              2.74659        6.8423247    
    101000   1.5375004      0.44991296     0              2.7550374      6.9635695    
    101500   1.5026828      0.44282503     0              2.6957487      6.9072889    
    102000   1.4971499      0.44078648     0              2.6854148      6.8787181    
    102500   1.4832836      0.4649967      0              2.6888357      6.9222764    
    103000   1.5464633      0.4496344      0              2.7681966      6.9310817    
    103500   1.4580565      0.41327351     0              2.5992903      6.6394476    
    104000   1.4594633      0.39728758     0              2.5854136      6.3903434    
    104500   1.4230746      0.3959138      0              2.5294834      6.4459665    
    105000   1.4289015      0.37872417     0              2.5210299      6.1184351    
    105500   1.4255919      0.42272054     0              2.5600643      6.7082738    
    106000   1.4166526      0.39616811     0              2.5201094      6.358915     
    106500   1.3645815      0.39611258     0              2.4419854      6.2853697    
    107000   1.3031099      0.39689804     0              2.3506084      6.3110207    
    107500   1.3044712      0.36472894     0              2.3204804      6.0094466    
    108000   1.2625306      0.35853356     0              2.2514048      5.9140406    
    108500   1.2724996      0.35138346     0              2.2592008      5.8520318    
    109000   1.2673201      0.36317831     0              2.2632302      5.9689832    
    109500   1.2653921      0.36617981     0              2.2633411      6.002096     
    110000   1.2089902      0.39235985     0              2.2049596      6.0164278    
    110500   1.2088172      0.3606254      0              2.1729658      5.9015486    
    111000   1.2147309      0.34313218     0              2.1643388      5.6769802    
    111500   1.2044616      0.35942279     0              2.165233       5.8395724    
    112000   1.2193141      0.32956809     0              2.1576462      5.5937406    
    112500   1.2008892      0.32050766     0              2.1209619      5.4813089    
    113000   1.1834606      0.33667638     0              2.1110006      5.5802831    
    113500   1.1806554      0.29282395     0              2.0629422      5.1816467    
    114000   1.1624763      0.31646299     0              2.0593261      5.3567402    
    114500   1.136806       0.30902548     0              2.0134018      5.2619965    
    115000   1.1039006      0.27783124     0              1.9328736      5.0125481    
    115500   1.06245        0.29646309     0              1.8893599      5.1386684    
    116000   1.0588206      0.28010146     0              1.8675569      4.9551837    
    116500   1.0378359      0.27254832     0              1.8285421      4.8598047    
    117000   1.0184449      0.30727042     0              1.8341918      5.1467339    
    117500   1.0412541      0.27273626     0              1.8338548      4.8617871    
    118000   1.0129789      0.26767022     0              1.7863966      4.7245345    
    118500   1.0053352      0.26207781     0              1.7693442      4.7309784    
    119000   0.98693718     0.25227868     0              1.7319616      4.5844693    
    119500   0.99009392     0.25194574     0              1.7363615      4.5767186    
    120000   0.989945       0.25634019     0              1.7405326      4.6873387    
    120500   0.9667672      0.25893175     0              1.7083745      4.6644717    
    121000   0.93332618     0.24666866     0              1.6459743      4.5084981    
    121500   0.90472177     0.24453072     0              1.6009507      4.5222623    
    122000   0.9144075      0.21460809     0              1.5855496      4.2054132    
    122500   0.88902994     0.24402622     0              1.57692        4.3796683    
    123000   0.89701554     0.21951805     0              1.5643844      4.2237605    
    123500   0.88967219     0.22817744     0              1.5620341      4.2923466    
    124000   0.84991014     0.19606143     0              1.4703041      3.8140692    
    124500   0.84487996     0.20267827     0              1.4693794      3.9543758    
    125000   0.82348693     0.20005397     0              1.4346812      3.9361965    
    125500   0.79724584     0.20897673     0              1.4042616      3.9551318    
    126000   0.78115428     0.18273632     0              1.3538956      3.634376     
    126500   0.78389063     0.18876481     0              1.3640266      3.7079994    
    127000   0.77323514     0.1882781      0              1.3475645      3.7361795    
    127500   0.76643855     0.18705571     0              1.3361522      3.7101487    
    128000   0.75036449     0.17183344     0              1.2968306      3.4909771    
    128500   0.75824515     0.17464718     0              1.3114595      3.515013     
    129000   0.7111077      0.15909475     0              1.2252355      3.3767784    
    129500   0.69655094     0.15690155     0              1.2012178      3.2835121    
    130000   0.65505825     0.16983318     0              1.1519408      3.4511708    
    130500   0.66502001     0.15188105     0              1.148924       3.2439408    
    131000   0.66356639     0.16156548     0              1.1564291      3.3595108    
    131500   0.64191439     0.13974347     0              1.1021449      3.0499183    
    132000   0.61157784     0.12727409     0              1.0441929      2.8376398    
    132500   0.60365223     0.13430166     0              1.0393379      2.9889529    
    133000   0.58154561     0.13482859     0              1.0067211      2.9366414    
    133500   0.57852709     0.13910294     0              1.0064699      2.9474838    
    134000   0.5563254      0.138651       0              0.97273163     2.9484735    
    134500   0.56391289     0.13074548     0              0.97620179     2.8693096    
    135000   0.53018141     0.12079066     0              0.91567446     2.7216962    
    135500   0.52211561     0.10854766     0              0.89133868     2.5453836    
    136000   0.51040573     0.10291848     0              0.86815325     2.4764171    
    136500   0.50045765     0.10349888     0              0.85381881     2.4566298    
    137000   0.4787472      0.11676456     0              0.83453471     2.6638602    
    137500   0.45534459     0.096325394    0              0.77900878     2.375004     
    138000   0.43086154     0.089239067    0              0.73521581     2.1745361    
    138500   0.43118031     0.088950997    0              0.73540566     2.2430105    
    139000   0.42407082     0.082475612    0              0.71827125     2.1009596    
    139500   0.40548574     0.080669467    0              0.6886011      2.064615     
    140000   0.39584817     0.091827582    0              0.68530991     2.2225019    
    140500   0.37135371     0.078496769    0              0.63525535     1.9750142    
    141000   0.3675693      0.067240925    0              0.61832565     1.816213     
    141500   0.35203118     0.069078855    0              0.59686779     1.8315249    
    142000   0.34146583     0.067149113    0              0.57909776     1.8237796    
    142500   0.31218493     0.062248723    0              0.53029747     1.678356     
    143000   0.30182596     0.059147859    0              0.51166574     1.6845175    
    143500   0.29155795     0.049481347    0              0.48660474     1.4899895    
    144000   0.28154138     0.047222002    0              0.46932786     1.4272536    
    144500   0.26284905     0.045350938    0              0.439432       1.4013241    
    145000   0.24310215     0.042205648    0              0.40668082     1.301784     
    145500   0.22818766     0.035613243    0              0.37772761     1.1571628    
    146000   0.21635516     0.036789326    0              0.3611636      1.1933691    
    146500   0.20339165     0.029607625    0              0.33454613     1.022038     
    147000   0.18550978     0.030904895    0              0.30903369     1.0389489    
    147500   0.17593658     0.025372988    0              0.289149       0.94596953   
    148000   0.16023023     0.022076474    0              0.26230446     0.84222086   
    148500   0.14458442     0.021736302    0              0.23850704     0.83583742   
    149000   0.1308021      0.01714277     0              0.21325011     0.69822343   
    149500   0.11619283     0.014619107    0              0.18882325     0.60736999   
    150000   0.10274972     0.011207415    0              0.16525674     0.52777251   
Loop time of 6.1829 on 8 procs for 100000 steps with 2048 atoms

Performance: 13974032.830 tau/day, 16173.649 timesteps/s, 33.124 Matom-step/s
99.5% CPU use with 8 MPI tasks x 1 OpenMP threads

MPI task timing breakdown:
Section |  min time  |  avg time  |  max time  |%varavg| %total
---------------------------------------------------------------
Pair    | 0.71293    | 0.72611    | 0.75955    |   1.7 | 11.74
Neigh   | 2.9063     | 2.9183     | 2.9322     |   0.6 | 47.20
Comm    | 1.7336     | 1.7771     | 1.8008     |   1.7 | 28.74
Output  | 0.045502   | 0.0457     | 0.046891   |   0.2 |  0.74
Modify  | 0.4566     | 0.46241    | 0.47191    |   0.7 |  7.48
Other   |            | 0.2533     |            |       |  4.10

Nlocal:            256 ave         263 max         247 min
Histogram: 1 0 0 2 0 0 2 2 0 1
Nghost:        417.125 ave         430 max         407 min
Histogram: 1 1 0 2 1 1 1 0 0 1
Neighs:         987.25 ave        1051 max         940 min
Histogram: 1 1 1 1 1 1 1 0 0 1

Total # of neighbors = 7898
Ave neighs/atom = 3.8564453
Neighbor list builds = 28362
Dangerous builds = 0
Total wall time: 0:00:10
LAMMPS (15 Sep 2022)
OMP_NUM_THREADS environment is not set. Defaulting to 1 thread. (src/comm.cpp:98)
  using 1 OpenMP thread(s) per MPI task
Lattice spacing in x,y,z = 1.6441414 1.6441414 1.6441414
Created orthogonal box = (0 0 0) to (13.153131 13.153131 13.153131)
  2 by 2 by 2 MPI processor grid
Created 2048 atoms
  using lattice units in orthogonal box = (0 0 0) to (13.153131 13.153131 13.153131)
  create_atoms CPU = 0.000 seconds
Generated 0 of 0 mixed pair_coeff terms from geometric mixing rule
Neighbor list info ...
  update: every = 1 steps, delay = 0 steps, check = yes
  max neighbors/atom: 2000, page size: 100000
  master list distance cutoff = 1.3
  ghost atom cutoff = 1.3
  binsize = 0.65, bins = 21 21 21
  1 neighbor lists, perpetual/occasional/extra = 1 0 0
  (1) pair lj/cut, perpetual
      attributes: half, newton on
      pair build: half/bin/atomonly/newton
      stencil: half/bin/3d
      bin: standard
Setting up Verlet run ...
  Unit style    : lj
  Current step  : 0
  Time step     : 0.01
Per MPI rank memory allocation (min/avg/max) = 3.077 | 3.077 | 3.077 Mbytes
   Step          Temp          E_pair         E_mol          TotEng         Press     
         0   3              0              0              4.4978027      2.6986816    
       500   3.1130741      1.3457556      0              6.0130867      17.9947      
      1000   3.0763387      1.3243637      0              5.9366186      17.644128    
      1500   3.0642188      1.3221188      0              5.9162027      17.595009    
      2000   3.0211639      1.4000007      0              5.9295338      18.231274    
      2500   3.0035129      1.3256519      0              5.8287214      17.642675    
      3000   2.9593875      1.2380289      0              5.6749426      17.064705    
      3500   2.9983649      1.3337323      0              5.8290835      17.764904    
      4000   3.0087618      1.3267309      0              5.83767        17.672551    
      4500   2.9203273      1.3361753      0              5.7145273      17.777126    
      5000   2.9705095      1.3090394      0              5.7626279      17.507954    
      5500   2.9803098      1.2953586      0              5.7636405      17.416399    
      6000   2.9963747      1.406807       0              5.8991744      18.445842    
      6500   3.0185605      1.3420918      0              5.8677217      17.972538    
      7000   3.0620757      1.3676092      0              5.95848        18.007291    
      7500   3.0502094      1.2899725      0              5.8630525      17.424096    
      8000   3.0976386      1.4239554      0              6.0681444      18.525731    
      8500   3.0382567      1.3829745      0              5.9381343      17.987284    
      9000   3.0484312      1.4294999      0              5.9999139      18.479977    
      9500   3.0737664      1.3856463      0              5.9940447      18.099073    
     10000   3.0372674      1.3175303      0              5.8712069      17.703078    
     10500   2.9630725      1.2871367      0              5.7295752      17.25603     
     11000   2.896968       1.3839162      0              5.7272464      17.919863    
     11500   2.9180767      1.4228466      0              5.7978243      18.314335    
     12000   2.9902258      1.3907772      0              5.8739259      18.31832     
     12500   3.0185581      1.3993831      0              5.9250093      18.282811    
     13000   3.063686       1.3526615      0              5.9459465      18.036092    
     13500   3.0242542      1.3619901      0              5.8961564      18.179153    
     14000   2.9479386      1.3780733      0              5.7978221      17.779606    
     14500   2.9377301      1.3534672      0              5.7579106      17.743665    
     15000   2.9553986      1.2466537      0              5.677587       17.070821    
     15500   2.9799535      1.3126285      0              5.7803761      17.386039    
     16000   3.0033635      1.318089       0              5.8209345      17.510608    
     16500   3.0166873      1.3905191      0              5.9133406      18.081459    
     17000   2.9620152      1.3762568      0              5.8171101      17.977555    
     17500   3.0047108      1.3705652      0              5.8754308      18.136123    
     18000   2.9395052      1.3277632      0              5.7348681      17.460389    
     18500   3.0047209      1.3155076      0              5.8203882      17.433121    
     19000   3.0776944      1.3173638      0              5.9316512      17.515703    
     19500   3.0418837      1.3652881      0              5.9258857      18.059099    
     20000   3.0049259      1.3674057      0              5.8725937      18.051781    
     20500   3.0306975      1.310807       0              5.8546336      17.393465    
     21000   2.9174861      1.3197538      0              5.6938461      17.562982    
     21500   3.0184729      1.2655819      0              5.7910805      17.156901    
     22000   2.974194       1.2691244      0              5.728237       17.184029    
     22500   3.0254548      1.2621993      0              5.7981655      17.035987    
     23000   2.9816407      1.3162194      0              5.7864966      17.517238    
     23500   2.9978879      1.3125333      0              5.8071694      17.329651    
     24000   3.0125902      1.3136848      0              5.8303636      17.58006     
     24500   2.9787525      1.3330786      0              5.7990257      17.760443    
     25000   2.9986786      1.3768415      0              5.8726631      18.177805    
     25500   3.0351295      1.3682859      0              5.9187572      18.116935    
     26000   3.0900043      1.3299986      0              5.962742       17.675217    
     26500   3.0169154      1.3599532      0              5.8831167      17.812784    
     27000   3.1812387      1.3409107      0              6.1104388      17.680932    
     27500   3.0298174      1.3940988      0              5.9366058      18.133625    
     28000   3.0832748      1.3375478      0              5.9602018      17.821854    
     28500   3.0132788      1.3776103      0              5.8953216      18.148533    
     29000   2.9695856      1.3329147      0              5.7851182      17.685599    
     29500   2.9410514      1.3534609      0              5.762884       17.971501    
     30000   2.912339       1.3193845      0              5.6857599      17.584728    
     30500   2.9710212      1.2352407      0              5.6895964      17.006422    
     31000   2.8802495      1.4438069      0              5.7620716      18.472326    
     31500   3.0084036      1.3116305      0              5.8220325      17.437543    
     32000   3.0775114      1.2854365      0              5.8994495      17.103594    
     32500   3.0225713      1.35798        0              5.8896231      17.822035    
     33000   3.077373       1.3352213      0              5.9490269      17.926227    
     33500   3.0476978      1.2976863      0              5.8670008      17.392698    
     34000   3.0606999      1.2905922      0              5.8794003      17.497353    
     34500   2.8934198      1.2792448      0              5.6172553      17.244113    
     35000   2.9936639      1.2761475      0              5.7644507      17.278019    
     35500   2.9527637      1.314575       0              5.7415579      17.612044    
     36000   2.9549002      1.3125569      0              5.742743       17.487205    
     36500   3.0138036      1.2545698      0              5.7730678      17.06697     
     37000   2.9453903      1.3500829      0              5.7660111      17.722354    
     37500   3.0036902      1.2552746      0              5.75861        16.945892    
     38000   3.0061271      1.2504321      0              5.757421       16.978608    
     38500   2.9412502      1.3597764      0              5.7694974      17.84961     
     39000   3.066204       1.2899072      0              5.8869675      17.390175    
     39500   2.9648461      1.3953812      0              5.8404788      18.097058    
     40000   3.0592446      1.3358714      0              5.9224976      17.495212    
     40500   3.0130398      1.255232       0              5.7725848      17.145865    
     41000   2.9947082      1.3139658      0              5.8038346      17.517303    
     41500   2.9037772      1.3478619      0              5.7014009      17.881511    
     42000   2.9973312      1.2946881      0              5.7884896      17.352909    
     42500   2.9879358      1.3244328      0              5.804148       17.526824    
     43000   2.9628088      1.3923203      0              5.8343634      18.085299    
     43500   2.9387723      1.4022281      0              5.8082342      18.339279    
     44000   3.0677188      1.2852553      0              5.8845866      17.40969     
     44500   3.0719132      1.3363424      0              5.9419622      17.776801    
     45000   3.0400434      1.3747834      0              5.9326219      18.122037    
     45500   2.9756586      1.371675       0              5.8329835      18.194886    
     46000   2.9223106      1.318791       0              5.7001165      17.671665    
     46500   3.0003382      1.2967882      0              5.795098       17.641009    
     47000   3.0462413      1.3147096      0              5.8818405      17.604613    
     47500   3.1046509      1.360845       0              6.0155473      17.930478    
     48000   2.9727985      1.2247909      0              5.6818113      16.814499    
     48500   3.0106958      1.3030972      0              5.8169358      17.332152    
     49000   2.9750762      1.4125918      0              5.8730271      18.165617    
     49500   2.9747064      1.3596074      0              5.8194883      17.835892    
     50000   3.1258615      1.241872       0              5.9283748      17.000707    
Loop time of 4.21108 on 8 procs for 50000 steps with 2048 atoms

Performance: 10258640.491 tau/day, 11873.426 timesteps/s, 24.317 Matom-step/s
99.6% CPU use with 8 MPI tasks x 1 OpenMP threads

MPI task timing breakdown:
Section |  min time  |  avg time  |  max time  |%varavg| %total
---------------------------------------------------------------
Pair    | 0.48141    | 0.4932     | 0.51441    |   1.7 | 11.71
Neigh   | 2.2767     | 2.2828     | 2.2873     |   0.3 | 54.21
Comm    | 1.0309     | 1.0545     | 1.0708     |   1.2 | 25.04
Output  | 0.0013649  | 0.0019826  | 0.0062327  |   3.6 |  0.05
Modify  | 0.2312     | 0.23488    | 0.23788    |   0.5 |  5.58
Other   |            | 0.1438     |            |       |  3.41

Nlocal:            256 ave         261 max         250 min
Histogram: 1 1 0 1 0 1 1 0 2 1
Nghost:        442.875 ave         456 max         430 min
Histogram: 1 2 0 0 1 0 1 2 0 1
Neighs:        1082.88 ave        1101 max        1068 min
Histogram: 1 0 2 1 1 1 1 0 0 1

Total # of neighbors = 8663
Ave neighs/atom = 4.2299805
Neighbor list builds = 20255
Dangerous builds = 0
Generated 0 of 0 mixed pair_coeff terms from geometric mixing rule
Setting up Verlet run ...
  Unit style    : lj
  Current step  : 50000
  Time step     : 0.01
Per MPI rank memory allocation (min/avg/max) = 3.133 | 3.133 | 3.133 Mbytes
   Step          Temp          E_pair         E_mol          TotEng         Press     
     50000   3.1258615      1.241872       0              5.9283748      17.000707    
     50500   3.0042064      1.2929539      0              5.7970631      17.440146    
     51000   2.9640935      1.3355258      0              5.7794951      17.705804    
     51500   2.9620346      1.3538726      0              5.794755       17.767292    
     52000   2.9956067      1.3499957      0              5.8412117      17.683118    
     52500   2.9215839      1.3005492      0              5.6807852      17.405478    
     53000   2.8973874      1.3443267      0              5.6882856      17.619022    
     53500   2.9222         1.2755745      0              5.6567343      17.104447    
     54000   2.8813567      1.2558127      0              5.5757374      17.092045    
     54500   2.9100145      1.2872047      0              5.650095       17.388617    
     55000   2.9013882      1.2821786      0              5.6321358      17.115943    
     55500   2.8491571      1.3220179      0              5.5936667      17.458527    
     56000   2.8730095      1.2800605      0              5.5874705      17.206058    
     56500   2.9319221      1.1697591      0              5.5654949      16.503428    
     57000   2.8242306      1.2471392      0              5.4814166      16.917271    
     57500   2.7358435      1.2105778      0              5.3123393      16.430674    
     58000   2.6958752      1.2287262      0              5.2705645      16.428976    
     58500   2.7331299      1.1526372      0              5.2503302      15.877785    
     59000   2.774943       1.129727       0              5.2901092      15.841619    
     59500   2.7885609      1.2297222      0              5.4105211      16.752416    
     60000   2.704812       1.2269048      0              5.2821417      16.559661    
     60500   2.7252388      1.2348792      0              5.3207413      16.604212    
     61000   2.7123356      1.2475036      0              5.3140204      16.52324     
     61500   2.6869439      1.1805105      0              5.2089584      16.052629    
     62000   2.7430318      1.1030379      0              5.2155766      15.479104    
     62500   2.7030303      1.1172267      0              5.1697924      15.597789    
     63000   2.6683903      1.1723449      0              5.172976       16.193286    
     63500   2.6287301      1.18055        0              5.1217198      16.158034    
     64000   2.6434162      1.0473173      0              5.0105055      14.917284    
     64500   2.6319668      1.0645484      0              5.010571       15.186657    
     65000   2.5580835      1.1706453      0              5.005897       15.907379    
     65500   2.5986184      1.200506       0              5.0965303      16.198308    
     66000   2.582899       1.1346199      0              5.0070767      15.622894    
     66500   2.5295426      1.1426435      0              4.9351047      15.597639    
     67000   2.5321671      1.1174293      0              4.9138254      15.565368    
     67500   2.51851        1.1646851      0              4.9406055      15.89373     
     68000   2.5541041      1.0944805      0              4.923766       15.296128    
     68500   2.4997768      1.1301685      0              4.8780029      15.576099    
     69000   2.4808476      1.1109818      0              4.8304362      15.494413    
     69500   2.507416       1.0150258      0              4.7743133      14.519752    
     70000   2.4193717      1.0320229      0              4.6593084      14.71988     
     70500   2.4156772      1.0388885      0              4.660635       14.657252    
     71000   2.4735213      0.95761652     0              4.6660868      14.191036    
     71500   2.4363442      1.0558655      0              4.7085974      14.794898    
     72000   2.4199686      1.0827178      0              4.7108983      15.007907    
     72500   2.4068956      0.99998682     0              4.6085674      14.350577    
     73000   2.3004044      1.0142182      0              4.4631399      14.543897    
     73500   2.3127125      0.99172219     0              4.4590971      14.218839    
     74000   2.2400958      0.99073116     0              4.3492342      14.233421    
     74500   2.3009037      0.98349908     0              4.4331694      14.089555    
     75000   2.286243       1.0413318      0              4.4690217      14.691015    
     75500   2.2927341      0.99960448     0              4.4370263      14.289941    
     76000   2.3009609      0.93667078     0              4.3864268      13.68508     
     76500   2.1728213      0.98983079     0              4.2474714      14.106909    
     77000   2.1684016      0.90308252     0              4.1540968      13.425927    
     77500   2.2106648      0.92697142     0              4.2413495      13.513876    
     78000   2.1565796      0.86332574     0              4.0966157      13.018143    
     78500   2.2071313      0.83012978     0              4.1392102      12.56376     
     79000   2.0669809      0.96553907     0              4.0644965      13.80409     
     79500   2.1251693      0.88956875     0              4.0757661      13.271553    
     80000   2.1389111      0.83787148     0              4.0446715      12.831968    
     80500   2.1157559      0.82374617     0              3.9958304      12.714791    
     81000   2.085037       0.86936915     0              3.9953975      12.899023    
     81500   2.0196881      0.87432556     0              3.9023785      12.938543    
     82000   2.0776602      0.8376193      0              3.9525878      12.939131    
     82500   2.0518498      0.86464182     0              3.9409137      12.86071     
     83000   2.1103304      0.80074227     0              3.9646923      12.407062    
     83500   2.0009257      0.877901       0              3.877824       12.971757    
     84000   1.9921104      0.77972193     0              3.7664284      12.085164    
     84500   1.9495793      0.83880293     0              3.7617439      12.509681    
     85000   1.9311563      0.80269439     0              3.6980145      12.297881    
     85500   1.9384403      0.82349465     0              3.7297354      12.492867    
     86000   1.9613758      0.79453395     0              3.7351611      12.123798    
     86500   1.9366286      0.75924404     0              3.6627685      11.919431    
     87000   1.9026084      0.76734667     0              3.6198657      11.907746    
     87500   1.873616       0.781712       0              3.5907637      12.088468    
     88000   1.8293213      0.81928998     0              3.5619321      12.207611    
     88500   1.8600917      0.74494039     0              3.5337156      11.610344    
     89000   1.8174585      0.7626155      0              3.4874721      11.691965    
     89500   1.8256873      0.77580196     0              3.5129957      11.912426    
     90000   1.8339089      0.77992812     0              3.5294482      12.067553    
     90500   1.8013224      0.78358072     0              3.484245       12.013906    
     91000   1.8115653      0.75290243     0              3.4689236      11.676902    
     91500   1.886362       0.7342413      0              3.5624027      11.663246    
     92000   1.8007794      0.79659692     0              3.496447       12.082821    
     92500   1.7809414      0.78109655     0              3.4512042      11.901031    
     93000   1.8027916      0.65085891     0              3.3537259      10.750501    
     93500   1.7303696      0.66776579     0              3.2620529      10.744253    
     94000   1.6997777      0.67827018     0              3.2266918      10.853248    
     94500   1.6851025      0.63300822     0              3.1594278      10.422284    
     95000   1.7066451      0.66352356     0              3.2222413      10.721824    
     95500   1.6724533      0.71318863     0              3.2206436      11.122869    
     96000   1.6354243      0.67485495     0              3.1267936      10.67991     
     96500   1.6475999      0.66877487     0              3.138968       10.649222    
     97000   1.6463498      0.68507854     0              3.1533975      10.929858    
     97500   1.6585803      0.68211048     0              3.1687661      10.859723    
     98000   1.6381391      0.64301083     0              3.0990197      10.408319    
     98500   1.5963685      0.66092453     0              3.054308       10.639085    
     99000   1.5934769      0.63012388     0              3.0191721      10.423383    
     99500   1.6229407      0.59489107     0              3.0281135      9.95102      
    100000   1.5284282      0.62791615     0              2.919439       10.273776    
    100500   1.5033031      0.62732082     0              2.8811744      10.353395    
    101000   1.4846921      0.58366499     0              2.8096157      9.6624012    
    101500   1.4989968      0.61050785     0              2.8579051      9.9557028    
    102000   1.5311744      0.58153787     0              2.8771781      9.7088094    
    102500   1.4897211      0.60095129     0              2.8344419      9.8039947    
    103000   1.481905       0.60171735     0              2.8234894      9.8821649    
    103500   1.4730968      0.5557354      0              2.7643017      9.4768093    
    104000   1.4276952      0.57924018     0              2.7197374      9.5672331    
    104500   1.430763       0.57504235     0              2.7201389      9.6677619    
    105000   1.4474775      0.57204379     0              2.7421999      9.742791     
    105500   1.3817361      0.53794857     0              2.6095408      9.1142248    
    106000   1.3583184      0.5786777      0              2.6151604      9.4960825    
    106500   1.3792132      0.49658043     0              2.56439        8.7321842    
    107000   1.3616824      0.49925369     0              2.5407799      8.8301444    
    107500   1.3280156      0.53335261     0              2.5244034      9.2252838    
    108000   1.2648514      0.47713814     0              2.3734888      8.4452609    
    108500   1.3072961      0.46644828     0              2.426435       8.3163573    
    109000   1.283001       0.48349445     0              2.4070562      8.579624     
    109500   1.2481363      0.50208339     0              2.3733737      8.6694679    
    110000   1.2417411      0.4625748      0              2.324277       8.2442743    
    110500   1.2338644      0.46366688     0              2.3135597      8.2486194    
    111000   1.2208266      0.48023508     0              2.3105809      8.4737973    
    111500   1.2327229      0.45278169     0              2.3009631      8.0750137    
    112000   1.1425175      0.45514264     0              2.168082       8.0398604    
    112500   1.1704867      0.42865022     0              2.1835229      7.880333     
    113000   1.1327091      0.44774628     0              2.1459804      7.9971033    
    113500   1.1523333      0.42597349     0              2.1536294      7.7037513    
    114000   1.1321003      0.41822032     0              2.1155416      7.6566956    
    114500   1.1175937      0.40723698     0              2.082809       7.5929954    
    115000   1.0828605      0.42670509     0              2.0502027      7.7056146    
    115500   1.0920988      0.38980878     0              2.0271571      7.2883543    
    116000   1.064203       0.39904871     0              1.9945738      7.4118977    
    116500   1.04775        0.40236632     0              1.9732239      7.4511745    
    117000   1.0492085      0.39188776     0              1.9649321      7.3185378    
    117500   1.0542657      0.3892352      0              1.9698616      7.3350706    
    118000   1.0228659      0.39265115     0              1.9262009      7.3322999    
    118500   1.0536526      0.35996493     0              1.9396721      6.9372834    
    119000   1.0011789      0.37239104     0              1.8734261      6.9376688    
    119500   1.0106912      0.3720021      0              1.8872987      6.8933387    
    120000   0.9573235      0.35907937     0              1.7943635      6.9449423    
    120500   0.95666853     0.35495573     0              1.7892578      6.8251681    
    121000   0.95298539     0.34951639     0              1.7782965      6.7991239    
    121500   0.94078407     0.33963865     0              1.7501257      6.6829142    
    122000   0.90795212     0.34090457     0              1.7021677      6.5886848    
    122500   0.90566272     0.33686664     0              1.6946974      6.5654837    
    123000   0.90854633     0.30601828     0              1.6681723      6.1683651    
    123500   0.8729815      0.31399876     0              1.6228316      6.3066316    
    124000   0.85033958     0.2990931      0              1.5739797      6.0986846    
    124500   0.81475717     0.28646678     0              1.5080058      5.8358129    
    125000   0.80965993     0.29376822     0              1.5076651      5.9383397    
    125500   0.81199674     0.27421066     0              1.4916111      5.6224036    
    126000   0.78747731     0.25485005     0              1.4354893      5.4518072    
    126500   0.77900139     0.26890559     0              1.4368371      5.6745585    
    127000   0.76038862     0.27138621     0              1.4114122      5.5796874    
    127500   0.75872822     0.26945213     0              1.4069888      5.5792512    
    128000   0.74503803     0.25834505     0              1.3753564      5.4241849    
    128500   0.75405242     0.25919322     0              1.3897196      5.4428863    
    129000   0.70782773     0.23520718     0              1.2964303      5.1458277    
    129500   0.70243155     0.2266867      0              1.2798196      4.9751235    
    130000   0.65880905     0.23102644     0              1.2187575      5.0334609    
    130500   0.67120434     0.19982584     0              1.2061407      4.5520519    
    131000   0.64818015     0.21412231     0              1.1859178      4.7831563    
    131500   0.64976546     0.20746478     0              1.1816371      4.6852588    
    132000   0.64518942     0.21351455     0              1.1808261      4.7541289    
    132500   0.60783621     0.19294457     0              1.1042537      4.4806156    
    133000   0.59019075     0.19000405     0              1.0748579      4.4179196    
    133500   0.57700979     0.1784029      0              1.043495       4.2922173    
    134000   0.56318781     0.16979365     0              1.0141629      4.0769591    
    134500   0.55071319     0.16341542     0              0.98908185     4.0304181    
    135000   0.54260018     0.15648388     0              0.96998673     3.9405547    
    135500   0.53898635     0.15097861     0              0.95906336     3.756886     
    136000   0.51182186     0.15382619     0              0.92118411     3.7792284    
    136500   0.50821203     0.16207403     0              0.92401985     3.9655       
    137000   0.47874874     0.14635022     0              0.86412269     3.7474482    
    137500   0.48058897     0.15055717     0              0.87108864     3.7857669    
    138000   0.4471095      0.1270565      0              0.79739327     3.3688206    
    138500   0.43163126     0.13011534     0              0.7772461      3.3635126    
    139000   0.43083671     0.1303253      0              0.77626481     3.3831762    
    139500   0.40806994     0.11341639     0              0.72522242     3.0715541    
    140000   0.40282984     0.11686195     0              0.72081167     3.1693165    
    140500   0.37965936     0.097480542    0              0.66669151     2.7962051    
    141000   0.37037616     0.10066743     0              0.65596039     2.8762633    
    141500   0.33814661     0.11215563     0              0.61912788     2.9835388    
    142000   0.33502802     0.089833283    0              0.59212993     2.5729173    
    142500   0.31339378     0.080434724    0              0.55029586     2.4173647    
    143000   0.30141403     0.081492165    0              0.53339245     2.4503714    
    143500   0.28259381     0.076885577    0              0.50056931     2.3627565    
    144000   0.27463191     0.069364871    0              0.48111159     2.204183     
    144500   0.26102235     0.069101776    0              0.46044412     2.1486987    
    145000   0.24176615     0.057647911    0              0.42012006     1.9494583    
    145500   0.23509827     0.053374097    0              0.40584931     1.8485068    
    146000   0.21742574     0.049007961    0              0.37498733     1.7330572    
    146500   0.20017761     0.04307258     0              0.34319238     1.5941655    
    147000   0.18904993     0.040226986    0              0.32366341     1.5408045    
    147500   0.17316524     0.039109143    0              0.29873017     1.4517902    
    148000   0.157956       0.034747699    0              0.271566       1.3843054    
    148500   0.14406761     0.031237732    0              0.24723363     1.2875156    
    149000   0.13101196     0.025114534    0              0.22153652     1.0744917    
    149500   0.11478427     0.023274593    0              0.19536693     1.0294687    
    150000   0.10141356     0.01833206     0              0.17037812     0.8858602    
Loop time of 6.69148 on 8 procs for 100000 steps with 2048 atoms

Performance: 12911936.443 tau/day, 14944.371 timesteps/s, 30.606 Matom-step/s
99.5% CPU use with 8 MPI tasks x 1 OpenMP threads

MPI task timing breakdown:
Section |  min time  |  avg time  |  max time  |%varavg| %total
---------------------------------------------------------------
Pair    | 0.86219    | 0.88059    | 0.91577    |   2.1 | 13.16
Neigh   | 3.1864     | 3.1906     | 3.197      |   0.2 | 47.68
Comm    | 1.7931     | 1.8293     | 1.8472     |   1.4 | 27.34
Output  | 0.069963   | 0.070271   | 0.072198   |   0.3 |  1.05
Modify  | 0.46015    | 0.46483    | 0.47081    |   0.5 |  6.95
Other   |            | 0.2559     |            |       |  3.82

Nlocal:            256 ave         267 max         247 min
Histogram: 3 0 0 0 1 1 0 1 1 1
Nghost:        441.875 ave         453 max         436 min
Histogram: 2 2 0 0 2 1 0 0 0 1
Neighs:        1151.12 ave        1228 max        1096 min
Histogram: 3 0 0 1 0 2 0 0 1 1

Total # of neighbors = 9209
Ave neighs/atom = 4.496582
Neighbor list builds = 28300
Dangerous builds = 0
Total wall time: 0:00:10
LAMMPS (15 Sep 2022)
OMP_NUM_THREADS environment is not set. Defaulting to 1 thread. (src/comm.cpp:98)
  using 1 OpenMP thread(s) per MPI task
Lattice spacing in x,y,z = 1.5874011 1.5874011 1.5874011
Created orthogonal box = (0 0 0) to (12.699208 12.699208 12.699208)
  2 by 2 by 2 MPI processor grid
Created 2048 atoms
  using lattice units in orthogonal box = (0 0 0) to (12.699208 12.699208 12.699208)
  create_atoms CPU = 0.000 seconds
Generated 0 of 0 mixed pair_coeff terms from geometric mixing rule
Neighbor list info ...
  update: every = 1 steps, delay = 0 steps, check = yes
  max neighbors/atom: 2000, page size: 100000
  master list distance cutoff = 1.3
  ghost atom cutoff = 1.3
  binsize = 0.65, bins = 20 20 20
  1 neighbor lists, perpetual/occasional/extra = 1 0 0
  (1) pair lj/cut, perpetual
      attributes: half, newton on
      pair build: half/bin/atomonly/newton
      stencil: half/bin/3d
      bin: standard
Setting up Verlet run ...
  Unit style    : lj
  Current step  : 0
  Time step     : 0.01
Per MPI rank memory allocation (min/avg/max) = 3.077 | 3.077 | 3.077 Mbytes
   Step          Temp          E_pair         E_mol          TotEng         Press     
         0   3              0              0              4.4978027      2.9985352    
       500   3.0975571      1.9529911      0              6.597058       26.481846    
      1000   3.0770829      1.8567456      0              6.4701163      25.722977    
      1500   3.0753112      1.7805436      0              6.391258       25.423762    
      2000   3.0208357      1.8417138      0              6.3707548      25.87352     
      2500   3.0390236      1.8515958      0              6.4079054      25.85853     
      3000   3.0325879      1.899561       0              6.4462218      26.14933     
      3500   3.0586508      1.8513237      0              6.4370596      25.391684    
      4000   3.0115784      1.9107203      0              6.4258822      26.054552    
      4500   2.9945938      1.8196307      0              6.3093281      25.510505    
      5000   2.9830949      1.7946356      0              6.267093       24.97911     
      5500   2.9437519      1.7579988      0              6.1714706      24.620167    
      6000   3.053917       1.73373        0              6.3123687      24.716959    
      6500   3.0625426      1.8321327      0              6.4237036      25.632806    
      7000   3.1110041      1.7949962      0              6.4592237      25.426406    
      7500   2.9920737      1.727869       0              6.213788       24.595134    
      8000   3.0899719      1.7389428      0              6.3716375      24.815813    
      8500   2.9875273      1.8253569      0              6.3044598      25.417266    
      9000   2.9546522      1.8597218      0              6.289536       25.750692    
      9500   3.0014439      1.7815733      0              6.2815408      25.181685    
     10000   3.1223331      1.7348682      0              6.416081       24.653549    
     10500   2.9829987      1.8535277      0              6.325841       25.59889     
     11000   3.0891429      1.9008042      0              6.5322559      25.981915    
     11500   2.9917207      1.9112788      0              6.3966686      26.046532    
     12000   3.0703419      1.8194918      0              6.4227559      25.407031    
     12500   3.1195419      1.8085662      0              6.4855942      25.426966    
     13000   2.9342276      1.8848883      0              6.2840805      25.913698    
     13500   3.0257947      1.7712438      0              6.3077196      24.825351    
     14000   3.048608       1.7082751      0              6.2789543      24.621571    
     14500   2.9912139      1.8436771      0              6.3283071      25.587153    
     15000   2.9259773      1.8037776      0              6.1906005      25.093737    
     15500   3.0789119      1.6669732      0              6.2830859      24.251009    
     16000   3.0770053      1.7660018      0              6.379256       25.042519    
     16500   3.0453459      1.7180471      0              6.2838354      24.508074    
     17000   3.1353072      1.7917752      0              6.4924397      25.250044    
     17500   3.0196847      1.7951739      0              6.3224893      25.211941    
     18000   3.0302848      1.8029966      0              6.3462044      25.455011    
     18500   2.9841509      1.7487491      0              6.2227899      24.565811    
     19000   2.9440191      1.8628029      0              6.2766752      25.791233    
     19500   3.0186052      1.6975498      0              6.2232467      24.522034    
     20000   2.9827724      1.8425868      0              6.3145608      25.750307    
     20500   3.0170832      1.7241072      0              6.2475221      24.629343    
     21000   2.9770479      1.8292873      0              6.2926788      25.385035    
     21500   2.9314067      1.7913584      0              6.1863215      25.381989    
     22000   3.03171        1.7518287      0              6.2971732      24.933818    
     22500   2.9754641      1.8582629      0              6.3192798      25.599577    
     23000   3.0205903      1.8108826      0              6.3395557      25.179389    
     23500   3.0817354      1.8471371      0              6.4674831      25.656267    
     24000   3.0418583      1.7758725      0              6.336432       24.979101    
     24500   3.0742378      1.7307469      0              6.3398519      24.669685    
     25000   3.0694359      1.8500722      0              6.4519779      25.624062    
     25500   2.9923143      1.7652789      0              6.2515587      24.895817    
     26000   2.9623084      1.8356144      0              6.2769073      25.256209    
     26500   2.9624248      1.8115283      0              6.2529957      25.21221     
     27000   2.9596692      1.7967575      0              6.2340936      25.111334    
     27500   2.9630842      1.7851963      0              6.2276523      25.007397    
     28000   2.9921332      1.8237885      0              6.3097969      25.498833    
     28500   2.9640514      1.7165091      0              6.1604154      24.340315    
     29000   3.0511701      1.7122823      0              6.2868027      24.574494    
     29500   3.0415852      1.7697247      0              6.3298748      24.966649    
     30000   2.9395465      1.75402        0              6.1611867      24.789846    
     30500   3.0014261      1.7659017      0              6.2658426      24.748223    
     31000   2.9439873      1.8174983      0              6.2313229      25.399042    
     31500   3.0169729      1.7943211      0              6.3175708      25.271178    
     32000   2.9761886      1.8022212      0              6.2643243      25.245977    
     32500   3.0353219      1.825996       0              6.3767557      25.314655    
     33000   2.9636664      1.8303307      0              6.2736596      25.466185    
     33500   3.120872       1.7619768      0              6.4409989      25.225546    
     34000   2.9925549      1.7297714      0              6.2164118      24.546347    
     34500   2.9824316      1.8125292      0              6.2839922      25.237467    
     35000   3.0575833      1.7628596      0              6.346995       24.914557    
     35500   3.017316       1.7514734      0              6.2752374      24.8915      
     36000   3.0230068      1.7455274      0              6.2778235      24.658897    
     36500   2.9047242      1.8857598      0              6.2407186      25.94288     
     37000   2.9634944      1.7849179      0              6.2279889      24.877778    
     37500   2.9606117      1.8162484      0              6.2549974      25.373331    
     38000   2.8768157      1.8812205      0              6.1943369      25.7753      
     38500   2.936078       1.8766782      0              6.2786447      26.00779     
     39000   2.9698924      1.8452458      0              6.2979092      25.679171    
     39500   3.023552       1.814234       0              6.3473474      25.082905    
     40000   2.9954946      1.8207011      0              6.311749       25.295293    
     40500   3.0771139      1.8038459      0              6.417263       25.332203    
     41000   3.032083       1.8698346      0              6.4157383      25.982379    
     41500   2.9952783      1.8058209      0              6.2965446      25.400263    
     42000   3.0702924      1.9283934      0              6.5315831      26.380175    
     42500   3.0980397      1.7190899      0              6.3638803      24.821295    
     43000   3.1190933      1.7621225      0              6.4384779      24.893128    
     43500   3.081713       1.8755105      0              6.4958229      26.054898    
     44000   2.9459394      1.8062914      0              6.2230429      25.151721    
     44500   2.9799135      1.6803279      0              6.1480157      24.238344    
     45000   3.0234589      1.7866183      0              6.3195922      24.973148    
     45500   3.088365       1.855253       0              6.4855386      25.746747    
     46000   2.9878758      1.769413       0              6.2490382      25.205866    
     46500   3.1260962      1.7695516      0              6.4564062      25.084066    
     47000   2.9613186      1.7419003      0              6.1817092      24.581133    
     47500   3.0193884      1.8518533      0              6.3787244      25.452818    
     48000   3.1439257      1.8940406      0              6.6076264      26.089175    
     48500   2.979798       1.8297108      0              6.2972254      25.35966     
     49000   3.0153665      1.8644285      0              6.3852698      25.736307    
     49500   3.0237344      1.7671231      0              6.30051        24.890203    
     50000   3.0544388      1.8618561      0              6.4412771      25.864316    
Loop time of 4.5288 on 8 procs for 50000 steps with 2048 atoms

Performance: 9538946.876 tau/day, 11040.448 timesteps/s, 22.611 Matom-step/s
99.6% CPU use with 8 MPI tasks x 1 OpenMP threads

MPI task timing breakdown:
Section |  min time  |  avg time  |  max time  |%varavg| %total
---------------------------------------------------------------
Pair    | 0.57156    | 0.58382    | 0.61522    |   1.7 | 12.89
Neigh   | 2.4689     | 2.4802     | 2.4949     |   0.6 | 54.76
Comm    | 1.0395     | 1.0839     | 1.1061     |   1.9 | 23.93
Output  | 0.0013485  | 0.0019742  | 0.0063081  |   3.7 |  0.04
Modify  | 0.23156    | 0.23571    | 0.23999    |   0.6 |  5.20
Other   |            | 0.1432     |            |       |  3.16

Nlocal:            256 ave         261 max         250 min
Histogram: 2 0 0 1 1 0 1 0 0 3
Nghost:        464.375 ave         474 max         455 min
Histogram: 1 0 1 1 2 1 0 0 1 1
Neighs:        1218.75 ave        1262 max        1180 min
Histogram: 2 1 0 0 0 1 2 0 1 1

Total # of neighbors = 9750
Ave neighs/atom = 4.7607422
Neighbor list builds = 20208
Dangerous builds = 1
Generated 0 of 0 mixed pair_coeff terms from geometric mixing rule
Setting up Verlet run ...
  Unit style    : lj
  Current step  : 50000
  Time step     : 0.01
Per MPI rank memory allocation (min/avg/max) = 3.133 | 3.133 | 3.134 Mbytes
   Step          Temp          E_pair         E_mol          TotEng         Press     
     50000   3.0544388      1.8618561      0              6.4412771      25.864316    
     50500   2.9039601      1.8896714      0              6.2434846      25.854286    
     51000   3.0296639      1.7397893      0              6.2820662      24.513958    
     51500   3.0657021      1.8007609      0              6.3970687      24.977643    
     52000   2.915448       1.7884896      0              6.1595264      24.942626    
     52500   2.9914626      1.6845522      0              6.1695551      24.002356    
     53000   3.0305041      1.7124425      0              6.2559791      24.392731    
     53500   2.8657002      1.7814479      0              6.0778994      24.860887    
     54000   2.8769041      1.79184        0              6.1050891      25.122228    
     54500   2.8397895      1.6536303      0              5.9112347      23.766853    
     55000   2.8749184      1.7122515      0              6.0225235      24.187467    
     55500   2.8798707      1.6007106      0              5.9184074      23.400018    
     56000   2.7588992      1.7658228      0              5.9021509      24.637532    
     56500   2.8129051      1.6386636      0              5.855961       23.706626    
     57000   2.8174626      1.7065742      0              5.9307046      24.262577    
     57500   2.8941484      1.7653615      0              6.1044644      24.890163    
     58000   2.7790644      1.6530871      0              5.8196483      23.583524    
     58500   2.7330165      1.668288       0              5.7658111      23.807054    
     59000   2.7903164      1.6404415      0              5.8238724      23.505709    
     59500   2.7121395      1.6204849      0              5.6867078      23.20225     
     60000   2.8105276      1.5831214      0              5.7968544      23.15269     
     60500   2.6579814      1.5749155      0              5.5599409      22.781294    
     61000   2.6831309      1.6392926      0              5.6620237      23.493265    
     61500   2.6743566      1.678892       0              5.6884681      23.806878    
     62000   2.6998214      1.6380848      0              5.6858395      23.56762     
     62500   2.7955151      1.53069        0              5.7219152      22.71343     
     63000   2.6259398      1.6263493      0              5.5633356      23.291328    
     63500   2.6722251      1.5608104      0              5.5671908      22.71285     
     64000   2.5801257      1.4858546      0              5.3541534      21.92157     
     64500   2.5728942      1.5039817      0              5.3614386      22.042678    
     65000   2.5760587      1.4328382      0              5.2950394      21.608879    
     65500   2.50839        1.5248977      0              5.2856456      22.052478    
     66000   2.5139924      1.4268617      0              5.1960089      21.574856    
     66500   2.4095009      1.5898333      0              5.2023198      22.707529    
     67000   2.4439835      1.4770733      0              5.1412586      22.035532    
     67500   2.4601602      1.4757656      0              5.164204       21.691624    
     68000   2.4837424      1.425012       0              5.1488065      21.41926     
     68500   2.4888755      1.411196       0              5.1426864      21.199999    
     69000   2.4232605      1.4294658      0              5.0625816      21.221321    
     69500   2.4078689      1.4084876      0              5.0185274      21.037263    
     70000   2.386755       1.4584284      0              5.0368128      21.748709    
     70500   2.407333       1.4769188      0              5.086155       21.699771    
     71000   2.3745118      1.4032791      0              4.9633076      21.06587     
     71500   2.3689174      1.3200211      0              4.8716621      20.274414    
     72000   2.3171267      1.3445124      0              4.8185053      20.430327    
     72500   2.3022861      1.3372596      0              4.7890025      20.4353      
     73000   2.365289       1.2713167      0              4.8175178      19.893012    
     73500   2.281382       1.3218413      0              4.7422434      20.104521    
     74000   2.2560912      1.3648621      0              4.7473464      20.568743    
     74500   2.3146433      1.2955813      0              4.7658509      19.778132    
     75000   2.2779333      1.3563029      0              4.7715344      20.636119    
     75500   2.2957065      1.2392885      0              4.6811668      19.294334    
     76000   2.314583       1.2677657      0              4.7379448      19.580952    
     76500   2.2876038      1.3660828      0              4.795813       20.639511    
     77000   2.2615499      1.3340714      0              4.7247399      20.399908    
     77500   2.2514169      1.282482       0              4.6579584      19.849907    
     78000   2.2247613      1.2341538      0              4.5696662      19.296736    
     78500   2.2093375      1.2571087      0              4.5694968      19.586733    
     79000   2.1358325      1.2700475      0              4.4722319      19.445605    
     79500   2.1298183      1.199546       0              4.3927135      18.916852    
     80000   2.1489451      1.1889681      0              4.4108118      18.78827     
     80500   2.0781976      1.3179093      0              4.4336836      20.106492    
     81000   2.0518939      1.209157       0              4.285495       18.87339     
     81500   2.0447245      1.2278088      0              4.293398       19.153755    
     82000   2.0427282      1.1755984      0              4.2381945      18.668617    
     82500   2.0239715      1.2172265      0              4.2517014      18.830102    
     83000   2.0032194      1.2326107      0              4.2359726      18.963269    
     83500   2.0567361      1.1596633      0              4.243261       18.407124    
     84000   2.0223718      1.1274606      0              4.1595371      17.964617    
     84500   1.9918698      1.0727215      0              4.0590674      17.483739    
     85000   1.9739919      1.1772442      0              4.1367864      18.264138    
     85500   1.9407157      1.1347954      0              4.0444476      18.036355    
     86000   1.9555405      1.1003942      0              4.0322727      17.884513    
     86500   1.9074161      1.1277108      0              3.9874379      17.895114    
     87000   1.9376321      1.0862365      0              3.9912654      17.537675    
     87500   1.9150145      1.098492       0              3.9696111      17.662719    
     88000   1.8765665      1.0501798      0              3.8636552      17.059955    
     88500   1.8890526      1.0910128      0              3.9232081      17.710767    
     89000   1.8855105      1.0740701      0              3.9009548      17.367335    
     89500   1.8501893      1.0691374      0              3.8430662      17.18726     
     90000   1.8207595      1.0507657      0              3.7805713      17.151782    
     90500   1.8167401      1.0365471      0              3.7603267      16.878602    
     91000   1.7924434      1.0198034      0              3.7071556      16.660129    
     91500   1.7582334      1.044205       0              3.6802672      16.952521    
     92000   1.7881124      0.97555878     0              3.6564178      16.276033    
     92500   1.7642154      0.96797548     0              3.6130064      16.244649    
     93000   1.7439043      1.0089993      0              3.6235785      16.620225    
     93500   1.744081       1.0054768      0              3.6203209      16.379747    
     94000   1.748197       0.94564682     0              3.5666619      16.017642    
     94500   1.725961       0.93430976     0              3.5219871      15.753018    
     95000   1.7161923      0.92578032     0              3.4988117      15.604155    
     95500   1.7166074      0.93393635     0              3.5075902      15.797602    
     96000   1.6822096      0.92985889     0              3.4519413      15.617643    
     96500   1.6749355      0.89544264     0              3.4066191      15.275041    
     97000   1.6619601      0.90967544     0              3.4013983      15.492038    
     97500   1.6537076      0.92689714     0              3.4062473      15.713567    
     98000   1.658628       0.87716963     0              3.3638968      15.260666    
     98500   1.5889757      0.90510748     0              3.2874072      15.331138    
[...]
     63000   2.6132314      2.1199653      0              6.0378984      32.179049    
     63500   2.6382668      2.0762296      0              6.0316975      32.146718    
     64000   2.5483912      2.159852       0              5.9805724      32.874366    
     64500   2.6756243      2.1027889      0              6.1142656      32.359762    
     65000   2.5343751      2.0778316      0              5.877538       31.89043     
     65500   2.5061276      2.172857       0              5.9302128      32.801766    
     66000   2.4602905      2.0181282      0              5.706762       31.298848    
     66500   2.5511147      2.0286075      0              5.853411       31.664323    
     67000   2.5817637      2.0104036      0              5.8811582      31.696717    
     67500   2.4657554      2.0421999      0              5.7390271      31.512681    
     68000   2.4627848      1.9816555      0              5.6740288      30.961679    
     68500   2.4803017      1.9867828      0              5.7054186      30.869056    
     69000   2.5367485      1.987575       0              5.7908398      31.148216    
     69500   2.3905746      1.8877749      0              5.4718859      30.167544    
     70000   2.4117212      1.9803563      0              5.5961717      30.519448    
     70500   2.402303       1.8911049      0              5.4927999      29.794245    
     71000   2.4051583      1.9043138      0              5.5102897      30.16745     
     71500   2.3741408      1.8766338      0              5.4361061      29.728594    
     72000   2.3813964      1.9110852      0              5.4814355      30.075486    
     72500   2.3122111      1.8006316      0              5.2672546      28.885577    
     73000   2.3183693      1.9028503      0              5.3787063      30.134355    
     73500   2.3252271      1.9413807      0              5.4275183      30.219765    
     74000   2.2864745      1.8670776      0              5.2951146      29.401047    
     74500   2.3576614      1.8743302      0              5.4090955      29.649756    
     75000   2.2822961      1.8291903      0              5.2509628      29.425647    
     75500   2.2890742      1.8536773      0              5.285612       29.563545    
     76000   2.265435       1.7595101      0              5.1560033      28.607818    
     76500   2.2541258      1.7600542      0              5.1395919      28.404872    
     77000   2.1898767      1.7604788      0              5.0436899      28.43573     
     77500   2.2215866      1.7349276      0              5.0656803      28.449435    
     78000   2.1722182      1.7413166      0              4.9980529      28.011901    
     78500   2.19443        1.7410883      0              5.0311261      28.290464    
     79000   2.1718351      1.7434113      0              4.9995734      28.406038    
     79500   2.1629748      1.8037724      0              5.0466504      28.727595    
     80000   2.1686676      1.6981419      0              4.9495549      27.481868    
     80500   2.1756054      1.71305        0              4.9748647      27.812442    
     81000   2.0190911      1.7884879      0              4.8156457      28.598403    
     81500   2.0566626      1.7153944      0              4.7988819      27.704459    
     82000   2.1058469      1.5921325      0              4.7493605      26.745807    
     82500   2.0595298      1.6126475      0              4.7004337      26.745288    
     83000   2.1029779      1.6148094      0              4.767736       26.779104    
     83500   2.0464092      1.5879144      0              4.6560294      26.643548    
     84000   2.0562276      1.6782726      0              4.7611079      27.173493    
     84500   2.003549       1.6175326      0              4.6213886      26.903361    
     85000   2.0863089      1.5681277      0              4.6960631      26.265256    
     85500   1.9670052      1.5225024      0              4.4715695      25.686579    
     86000   1.9224263      1.569405       0              4.4516364      25.975756    
     86500   1.9362262      1.5348069      0              4.4377281      25.795569    
     87000   1.92182        1.5515321      0              4.4328545      25.935969    
     87500   1.9498942      1.5060478      0              4.429461       25.36556     
     88000   1.9125981      1.5141576      0              4.381654       25.495469    
     88500   1.9348493      1.5085773      0              4.4094342      25.604046    
     89000   1.8598572      1.4127255      0              4.2011491      24.534903    
     89500   1.8428828      1.468878       0              4.2318524      25.006652    
     90000   1.8132603      1.4633138      0              4.1818761      24.985392    
     90500   1.8397406      1.4168769      0              4.1751403      24.320141    
     91000   1.8104384      1.4896801      0              4.2040118      25.12673     
     91500   1.825774       1.3866112      0              4.123935       24.03605     
     92000   1.8470477      1.3890555      0              4.1582742      23.815969    
     92500   1.7645104      1.4678436      0              4.1133168      24.819798    
     93000   1.7709055      1.3844335      0              4.0394947      23.920044    
     93500   1.7555972      1.3604945      0              3.9926045      23.799839    
     94000   1.6737707      1.416507       0              3.925937       24.089176    
     94500   1.6756406      1.3520293      0              3.8642628      23.34008     
     95000   1.7102951      1.2709875      0              3.8351775      22.66346     
     95500   1.6534138      1.3328116      0              3.8117213      23.336853    
     96000   1.6415006      1.345267       0              3.8063157      23.329652    
     96500   1.6347254      1.2563733      0              3.707264       22.536595    
     97000   1.6098737      1.2595735      0              3.6732049      22.403518    
     97500   1.6850534      1.2742398      0              3.8005858      22.752571    
     98000   1.6081831      1.3041359      0              3.7152327      22.909043    
     98500   1.6224228      1.2269274      0              3.6593732      22.017862    
     99000   1.6068536      1.1920269      0              3.6011304      21.880059    
     99500   1.5338466      1.2593882      0              3.5590346      22.285304    
    100000   1.5380212      1.1897092      0              3.4956146      21.699129    
    100500   1.5183192      1.1516151      0              3.4279818      20.798034    
    101000   1.5160179      1.1933645      0              3.4662811      21.791518    
    101500   1.4734238      1.1984371      0              3.4074937      21.652518    
    102000   1.5024533      1.1761039      0              3.4286835      21.412242    
    102500   1.4464595      1.082972       0              3.2516019      20.24777     
    103000   1.483977       1.0667894      0              3.291668       20.055314    
    103500   1.411599       1.1721699      0              3.2885344      21.139027    
    104000   1.4659512      1.1395179      0              3.337371       21.053578    
    104500   1.454897       1.0745632      0              3.255843       20.107881    
    105000   1.4221895      1.0631695      0              3.1954121      19.926914    
    105500   1.4291717      1.0539542      0              3.196665       19.860442    
    106000   1.3596449      0.97460446     0              3.013076       18.865591    
    106500   1.3633512      1.0131685      0              3.0571968      19.168221    
    107000   1.3105993      0.99340475     0              2.9583437      19.07818     
    107500   1.3332438      0.97135788     0              2.970247       18.844934    
    108000   1.3389907      0.97011299     0              2.9776183      18.660055    
    108500   1.3197714      0.98186947     0              2.9605599      18.90797     
    109000   1.2756472      0.95683289     0              2.8693693      18.634544    
    109500   1.2535768      0.95009014     0              2.8295372      18.31989     
    110000   1.2406522      0.95077048     0              2.8108401      18.356527    
    110500   1.233972       0.94692704     0              2.7969812      18.402447    
    111000   1.2360886      0.9180732      0              2.7713008      17.953868    
    111500   1.2279398      0.89406273     0              2.735073       17.750443    
    112000   1.2237251      0.91444711     0              2.7491385      18.035295    
    112500   1.2089614      0.87211793     0              2.6846746      17.243234    
    113000   1.2188604      0.88620159     0              2.7135995      17.620763    
    113500   1.1340132      0.84901294     0              2.5492021      16.948414    
    114000   1.1049889      0.89074021     0              2.5474142      17.426271    
    114500   1.1112272      0.82926376     0              2.4952907      16.848569    
    115000   1.1036977      0.8021686      0              2.4569067      16.250363    
    115500   1.0805982      0.82000531     0              2.4401111      16.578801    
    116000   1.0844397      0.84933904     0              2.4752043      17.090028    
    116500   1.1073073      0.77205819     0              2.4322082      16.061258    
    117000   1.0833199      0.78422223     0              2.4084087      16.207566    
    117500   1.0117996      0.77922257     0              2.2961809      16.086197    
    118000   1.0299268      0.73733391     0              2.2814698      15.536645    
    118500   1.0095108      0.75941701     0              2.2729438      15.716706    
    119000   1.0408521      0.71536944     0              2.2758853      15.305743    
    119500   0.98106372     0.69260692     0              2.1634839      14.94819     
    120000   0.96216835     0.71210947     0              2.1546573      15.193245    
    120500   0.95672515     0.6552371      0              2.0896241      14.540165    
    121000   0.94008224     0.67994074     0              2.0893756      14.72564     
    121500   0.92639632     0.64862491     0              2.0375409      14.129542    
    122000   0.9240446      0.66784107     0              2.0532312      14.584493    
    122500   0.8756958      0.63561601     0              1.9485183      14.036795    
    123000   0.87124036     0.63478076     0              1.9410032      14.046491    
    123500   0.87326072     0.58986178     0              1.8991133      13.259195    
    124000   0.85738716     0.6039906      0              1.8894434      13.427217    
    124500   0.84746149     0.60707649     0              1.877648       13.658857    
    125000   0.81890453     0.59955442     0              1.8273114      13.515241    
    125500   0.83054979     0.58501724     0              1.8302336      13.380616    
    126000   0.79701015     0.5632635      0              1.758195       12.732226    
    126500   0.81511468     0.51999449     0              1.7420695      12.214925    
    127000   0.75963638     0.52255727     0              1.6614555      12.211178    
    127500   0.73605363     0.51296623     0              1.6165076      12.059109    
    128000   0.7493216      0.49259982     0              1.6160334      11.742369    
    128500   0.70995932     0.50217734     0              1.5665963      11.950464    
    129000   0.71226515     0.48679084     0              1.5546669      11.702451    
    129500   0.70566981     0.48059232     0              1.5385802      11.559105    
    130000   0.67159332     0.46293194     0              1.46983        11.267276    
    130500   0.67370609     0.46008036     0              1.470146       11.239299    
    131000   0.63444677     0.42002822     0              1.3712337      10.6341      
    131500   0.64495278     0.41237131     0              1.3793281      10.384493    
    132000   0.59830258     0.40720648     0              1.3042221      10.340213    
    132500   0.60398714     0.40833111     0              1.3138695      10.387514    
    133000   0.58018249     0.40158009     0              1.2714289      10.172055    
    133500   0.58836338     0.3573071      0              1.2394212      9.493943     
    134000   0.54082478     0.34297775     0              1.1538188      9.2363831    
    134500   0.54913763     0.3348994      0              1.1582036      9.0566288    
    135000   0.52928835     0.32509597     0              1.1186408      8.8009777    
    135500   0.51251505     0.31647706     0              1.0848743      8.7167804    
    136000   0.50546344     0.30737999     0              1.0652049      8.5478772    
    136500   0.48013377     0.30226388     0              1.0221129      8.3895104    
    137000   0.47192835     0.29586856     0              1.0034154      8.2850645    
    137500   0.45631031     0.27926839     0              0.96339964     7.9378511    
    138000   0.4525346      0.26644051     0              0.94491097     7.8568635    
    138500   0.43348724     0.25778008     0              0.90769345     7.6646563    
    139000   0.41773423     0.25675477     0              0.88305015     7.5673832    
    139500   0.4065578      0.23167643     0              0.84121536     7.0451708    
    140000   0.40351205     0.22757945     0              0.83255198     6.9492819    
    140500   0.36940184     0.22399895     0              0.77783116     6.9402265    
    141000   0.36630271     0.21335034     0              0.76253612     6.6404335    
    141500   0.33980362     0.2013424      0              0.71079895     6.3764321    
    142000   0.33203002     0.18947379     0              0.68727563     6.208192     
    142500   0.318513       0.17008514     0              0.64762135     5.7510376    
    143000   0.30802055     0.16300524     0              0.62481045     5.6117648    
    143500   0.28860795     0.15857874     0              0.59127928     5.4839225    
    144000   0.26908635     0.14792008     0              0.55135252     5.1948922    
    144500   0.26654311     0.12618551     0              0.52580495     4.6677676    
    145000   0.24620386     0.13032748     0              0.49945294     4.7913573    
    145500   0.23056255     0.11109465     0              0.45676961     4.2590404    
    146000   0.21487918     0.11073327     0              0.43289467     4.3094861    
    146500   0.20351604     0.099273447    0              0.40439845     4.0264112    
    147000   0.1888108      0.089934792    0              0.37301271     3.7491419    
    147500   0.17254826     0.082620854    0              0.34131686     3.4572706    
    148000   0.15975541     0.072813475    0              0.31232958     3.2826622    
    148500   0.14378279     0.064913996    0              0.28048287     2.9997117    
    149000   0.13137754     0.0559862      0              0.25295628     2.7303025    
    149500   0.11509706     0.04920674     0              0.22176803     2.4538378    
    150000   0.10386942     0.03653359     0              0.19226164     2.04534      
Loop time of 7.87658 on 8 procs for 100000 steps with 2048 atoms

Performance: 10969229.007 tau/day, 12695.867 timesteps/s, 26.001 Matom-step/s
99.5% CPU use with 8 MPI tasks x 1 OpenMP threads

MPI task timing breakdown:
Section |  min time  |  avg time  |  max time  |%varavg| %total
---------------------------------------------------------------
Pair    | 1.2522     | 1.3611     | 1.3862     |   3.6 | 17.28
Neigh   | 3.7584     | 3.7659     | 3.7894     |   0.5 | 47.81
Comm    | 1.8864     | 1.9234     | 2.0329     |   3.1 | 24.42
Output  | 0.099395   | 0.099607   | 0.10099    |   0.2 |  1.26
Modify  | 0.46008    | 0.46759    | 0.4786     |   0.9 |  5.94
Other   |            | 0.259      |            |       |  3.29

Nlocal:            256 ave         261 max         249 min
Histogram: 1 1 0 0 0 2 0 2 0 2
Nghost:        479.125 ave         491 max         473 min
Histogram: 1 3 0 1 1 1 0 0 0 1
Neighs:           1457 ave        1489 max        1392 min
Histogram: 1 0 0 0 0 2 1 1 1 2

Total # of neighbors = 11656
Ave neighs/atom = 5.6914062
Neighbor list builds = 28021
Dangerous builds = 0
Total wall time: 0:00:12
LAMMPS (15 Sep 2022)
OMP_NUM_THREADS environment is not set. Defaulting to 1 thread. (src/comm.cpp:98)
  using 1 OpenMP thread(s) per MPI task
Lattice spacing in x,y,z = 1.4938016 1.4938016 1.4938016
Created orthogonal box = (0 0 0) to (11.950413 11.950413 11.950413)
  2 by 2 by 2 MPI processor grid
Created 2048 atoms
  using lattice units in orthogonal box = (0 0 0) to (11.950413 11.950413 11.950413)
  create_atoms CPU = 0.000 seconds
Generated 0 of 0 mixed pair_coeff terms from geometric mixing rule
Neighbor list info ...
  update: every = 1 steps, delay = 0 steps, check = yes
  max neighbors/atom: 2000, page size: 100000
  master list distance cutoff = 1.3
  ghost atom cutoff = 1.3
  binsize = 0.65, bins = 19 19 19
  1 neighbor lists, perpetual/occasional/extra = 1 0 0
  (1) pair lj/cut, perpetual
      attributes: half, newton on
      pair build: half/bin/atomonly/newton
      stencil: half/bin/3d
      bin: standard
Setting up Verlet run ...
  Unit style    : lj
  Current step  : 0
  Time step     : 0.01
Per MPI rank memory allocation (min/avg/max) = 3.074 | 3.074 | 3.074 Mbytes
   Step          Temp          E_pair         E_mol          TotEng         Press     
         0   3              0              0              4.4978027      3.5982422    
       500   3.1249116      2.3916904      0              7.076769       39.561615    
      1000   2.9912195      2.3320304      0              6.8166687      38.447146    
      1500   2.9507396      2.2802482      0              6.7041964      38.211076    
      2000   3.0142902      2.1608546      0              6.6800822      36.981075    
      2500   3.0143024      2.2001955      0              6.7194413      37.308941    
      3000   2.9298407      2.3321933      0              6.7248085      38.529545    
      3500   2.994442       2.2430387      0              6.7325085      37.978221    
      4000   2.973415       2.3534944      0              6.8114391      38.965384    
      4500   2.9932477      2.1531731      0              6.6408523      36.774101    
      5000   2.9904853      2.3579364      0              6.841474       39.144951    
      5500   2.9861876      2.4042885      0              6.8813828      39.83157     
      6000   3.1888711      2.3301385      0              7.1111096      38.593602    
      6500   2.9836911      2.2632834      0              6.7366347      38.111308    
      7000   2.9522666      2.3075558      0              6.7337935      38.579513    
      7500   2.9956861      2.4848684      0              6.9762034      40.725134    
      8000   3.0005707      2.226492       0              6.7251504      37.565642    
      8500   3.0457366      2.3490298      0              6.915404       39.167792    
      9000   3.0317831      2.1563148      0              6.7017689      36.508711    
      9500   3.0145574      2.2762071      0              6.7958353      38.190998    
     10000   2.9555906      2.2335783      0              6.6647995      37.568101    
     10500   3.0248678      2.2988153      0              6.8339016      38.61082     
     11000   2.9986951      2.2783319      0              6.7741782      37.928494    
     11500   3.078785       2.4094364      0              7.0253589      39.985323    
     12000   3.0055827      2.264248       0              6.7704208      38.294417    
     12500   3.0895128      2.39469        0              7.0266963      39.700025    
     13000   2.9421074      2.3426431      0              6.7536493      39.117743    
slurmstepd: error: *** JOB 27014892 ON gr039 CANCELLED AT 2022-11-15T11:09:08 ***
