LAMMPS (15 Sep 2022)
OMP_NUM_THREADS environment is not set. Defaulting to 1 thread. (src/comm.cpp:98)
  using 1 OpenMP thread(s) per MPI task
Lattice spacing in x,y,z = 2 2 2
Created orthogonal box = (0 0 0) to (16 16 16)
  1 by 2 by 2 MPI processor grid
Created 2048 atoms
  using lattice units in orthogonal box = (0 0 0) to (16 16 16)
  create_atoms CPU = 0.000 seconds
Generated 0 of 0 mixed pair_coeff terms from geometric mixing rule
Neighbor list info ...
  update: every = 1 steps, delay = 0 steps, check = yes
  max neighbors/atom: 2000, page size: 100000
  master list distance cutoff = 1.3
  ghost atom cutoff = 1.3
  binsize = 0.65, bins = 25 25 25
  1 neighbor lists, perpetual/occasional/extra = 1 0 0
  (1) pair lj/cut, perpetual
      attributes: half, newton on
      pair build: half/bin/atomonly/newton
      stencil: half/bin/3d
      bin: standard
Setting up Verlet run ...
  Unit style    : lj
  Current step  : 0
  Time step     : 0.01
Per MPI rank memory allocation (min/avg/max) = 3.115 | 3.115 | 3.115 Mbytes
   Step          Temp          E_pair         E_mol          TotEng         Press     
         0   3              0              0              4.4978027      1.4992676    
       500   2.939391       0.38703934     0              4.793973       3.9912225    
      1000   2.9724816      0.35287771     0              4.809423       3.8347098    
      1500   2.9757749      0.37846343     0              4.8399463      3.9394402    
      2000   3.0095984      0.34275975     0              4.8549531      3.8387366    
      2500   3.0218456      0.35414421     0              4.8846994      3.8754643    
      3000   3.0698518      0.41101915     0              5.0135485      4.1526513    
      3500   3.0281376      0.37434179     0              4.9143303      3.8950705    
      4000   3.0103658      0.34597538     0              4.8593193      3.8054999    
      4500   3.041946       0.35037863     0              4.9110696      3.8311504    
      5000   2.9670711      0.42117932     0              4.8696128      4.1498032    
      5500   2.9320416      0.31080659     0              4.7067215      3.5773452    
      6000   2.9343735      0.35618748     0              4.7555986      3.8232205    
      6500   2.9417253      0.36783728     0              4.7782707      3.8794487    
      7000   2.9763123      0.35515588     0              4.8174444      3.8592274    
      7500   2.9548987      0.34713637     0              4.7773202      3.8012762    
      8000   2.9498392      0.38244697     0              4.8050452      3.9621394    
      8500   2.977036       0.39847782     0              4.8618514      4.0175982    
      9000   3.1022103      0.38152493     0              5.0325682      4.0341543    
      9500   3.0086146      0.41584615     0              4.9265645      4.1456318    
     10000   3.0331221      0.35767196     0              4.9051336      3.8194219    
     10500   3.006396       0.35044839     0              4.8578404      3.7952663    
     11000   2.9885148      0.31078721     0              4.7913706      3.5911167    
     11500   2.9790609      0.38467909     0              4.8510884      3.9882314    
     12000   2.9519155      0.37552115     0              4.8012323      3.9595242    
     12500   2.9554946      0.37524306     0              4.8063202      3.9209778    
     13000   2.9343087      0.38416937     0              4.7834832      3.9529101    
     13500   3.0029745      0.37391272     0              4.876175       3.9981696    
     14000   3.0323178      0.36984983     0              4.9161056      3.909399     
     14500   3.034849       0.39765828     0              4.947709       4.0866641    
     15000   3.0752776      0.36423559     0              4.9748995      3.9905766    
     15500   2.9410764      0.38906017     0              4.7985207      4.0127139    
     16000   2.8864194      0.40951272     0              4.7370278      3.9950549    
     16500   2.9381659      0.38342152     0              4.7885184      3.9880503    
     17000   3.0085739      0.37310834     0              4.8837656      3.9407931    
     17500   3.0164107      0.36571675     0              4.8881235      3.9139006    
     18000   3.0169617      0.40024302     0              4.9234759      4.0186909    
     18500   3.0227498      0.35788321     0              4.889794       3.8568976    
     19000   3.0420627      0.33596425     0              4.8968303      3.8153855    
     19500   3.0619761      0.36145151     0              4.9521729      3.9380102    
     20000   3.1146291      0.32429201     0              4.9939544      3.7570199    
     20500   3.0238393      0.43752832     0              4.9710726      4.2230632    
     21000   3.0035623      0.4123599      0              4.9155034      4.063858     
     21500   3.0451081      0.39166975     0              4.9571017      4.036417     
     22000   2.9770824      0.3667683      0              4.8302114      3.8696353    
     22500   2.960383       0.39521907     0              4.8336254      4.019402     
     23000   2.9631966      0.34700411     0              4.7896286      3.7486096    
     23500   2.9522797      0.36589272     0              4.79215        3.8769175    
     24000   2.9264642      0.35369851     0              4.7412514      3.8052039    
     24500   2.9767801      0.39204139     0              4.8550313      4.0119976    
     25000   3.0272143      0.37132068     0              4.909925       3.9068824    
     25500   3.0489898      0.37655874     0              4.9478102      3.9837461    
     26000   3.0773469      0.40345579     0              5.0172223      4.1324474    
     26500   3.1315427      0.38120164     0              5.0762221      4.0503297    
     27000   3.0357042      0.30918553     0              4.8605185      3.559739     
     27500   3.0223658      0.32730645     0              4.8586415      3.7190998    
     28000   2.961749       0.3951141      0              4.8355683      3.9995121    
     28500   2.9373214      0.35039426     0              4.7542251      3.7957114    
     29000   2.9787448      0.40000878     0              4.8659443      4.0509699    
     29500   2.9664119      0.3996352      0              4.8470804      4.0077133    
     30000   3.042548       0.35521721     0              4.9168108      3.8513124    
     30500   3.0260066      0.35594714     0              4.8927407      3.8051936    
     31000   3.0976637      0.35630313     0              5.0005299      3.9108483    
     31500   3.0203102      0.39499152     0              4.9232447      4.0054361    
     32000   3.0317004      0.40281791     0              4.948148       4.0979253    
     32500   2.9997326      0.37833832     0              4.8757402      3.8872167    
     33000   2.9935018      0.36006269     0              4.848123       3.8569877    
     33500   3.0489112      0.37422016     0              4.9453539      3.9647675    
     34000   2.9944139      0.37798482     0              4.8674126      3.8615353    
     34500   3.0002684      0.37178186     0              4.8699869      3.8917017    
     35000   2.9864738      0.37092472     0              4.8484481      3.8547309    
     35500   2.9327556      0.36299903     0              4.7599844      3.889298     
     36000   2.980557       0.37821282     0              4.8468653      3.9834225    
     36500   2.920411       0.41774409     0              4.7962217      4.1071808    
     37000   3.0154045      0.33585241     0              4.8567506      3.7442362    
     37500   3.0210589      0.37473373     0              4.9041094      3.8995115    
     38000   3.0114804      0.36830992     0              4.8833248      3.8998698    
     38500   3.0265963      0.34473845     0              4.8824162      3.8043433    
     39000   3.013268       0.37264189     0              4.8903369      3.9399362    
     39500   2.9941758      0.39427789     0              4.8833486      3.9634852    
     40000   2.9812028      0.40071887     0              4.8703396      4.0024662    
     40500   2.9944274      0.38487876     0              4.8743267      3.9732265    
     41000   3.0295033      0.39892557     0              4.9409617      4.0149378    
     41500   2.991549       0.39318409     0              4.8783165      4.0441059    
     42000   2.9229885      0.37068698     0              4.7530289      3.8703979    
     42500   2.9590884      0.39667842     0              4.8331437      4.0004812    
     43000   2.9549175      0.39671038     0              4.8269224      4.0569879    
     43500   2.9049867      0.4081004      0              4.7634528      4.0233336    
     44000   2.9821162      0.40697398     0              4.8779641      4.0532708    
     44500   3.0779204      0.38969024     0              5.0043165      4.0676937    
     45000   3.0302884      0.36657761     0              4.9097908      3.9366761    
     45500   3.0251222      0.35291418     0              4.8883819      3.8053985    
     46000   2.9346969      0.43665316     0              4.836549       4.1852683    
     46500   2.908669       0.37828768     0              4.7391607      3.8953762    
     47000   2.9815855      0.3859096      0              4.856104       3.9942759    
     47500   2.9924093      0.38562646     0              4.8720487      3.9554222    
     48000   3.0098546      0.35923546     0              4.8718129      3.8833747    
     48500   3.0637242      0.41236642     0              5.0057088      4.1460345    
     49000   3.0306518      0.37608383     0              4.9198418      3.9196676    
     49500   2.9933356      0.38950577     0              4.8773168      4.0173868    
     50000   3.0391174      0.40401258     0              4.9604628      4.1001945    
Loop time of 5.40797 on 4 procs for 50000 steps with 2048 atoms

Performance: 7988208.312 tau/day, 9245.611 timesteps/s, 18.935 Matom-step/s
99.7% CPU use with 4 MPI tasks x 1 OpenMP threads

MPI task timing breakdown:
Section |  min time  |  avg time  |  max time  |%varavg| %total
---------------------------------------------------------------
Pair    | 0.49049    | 0.50008    | 0.51633    |   1.4 |  9.25
Neigh   | 3.3255     | 3.3424     | 3.3618     |   0.8 | 61.80
Comm    | 0.98502    | 1.0203     | 1.0464     |   2.3 | 18.87
Output  | 0.0012427  | 0.0025823  | 0.006596   |   4.6 |  0.05
Modify  | 0.35901    | 0.36179    | 0.3651     |   0.4 |  6.69
Other   |            | 0.1809     |            |       |  3.34

Nlocal:            512 ave         526 max         492 min
Histogram: 1 0 0 0 1 0 0 0 0 2
Nghost:         533.75 ave         546 max         507 min
Histogram: 1 0 0 0 0 0 0 1 0 2
Neighs:        1016.25 ave        1059 max         939 min
Histogram: 1 0 0 0 0 0 1 0 0 2

Total # of neighbors = 4065
Ave neighs/atom = 1.9848633
Neighbor list builds = 20408
Dangerous builds = 0
Generated 0 of 0 mixed pair_coeff terms from geometric mixing rule
Setting up Verlet run ...
  Unit style    : lj
  Current step  : 50000
  Time step     : 0.01
Per MPI rank memory allocation (min/avg/max) = 3.189 | 3.189 | 3.189 Mbytes
   Step          Temp          E_pair         E_mol          TotEng         Press     
     50000   3.0391174      0.40401258     0              4.9604628      4.1001945    
     50500   3.0155514      0.34803878     0              4.8691573      3.8789318    
     51000   2.9909051      0.38507393     0              4.8692409      3.9515121    
     51500   2.8545104      0.39125712     0              4.6709319      3.9268989    
     52000   2.9247731      0.33610273     0              4.7211202      3.7247814    
     52500   2.8909356      0.36020906     0              4.6944951      3.8499896    
     53000   2.851111       0.40026185     0              4.6748401      3.9272774    
     53500   2.9211199      0.33339405     0              4.7129344      3.7389935    
     54000   2.874377       0.35116237     0              4.6606226      3.7963808    
     54500   2.9501333      0.34936293     0              4.7724022      3.7769251    
     55000   2.9531637      0.36446004     0              4.7920427      3.8756845    
     55500   2.8463954      0.39859016     0              4.6660985      4.0344998    
     56000   2.8441903      0.3597116      0              4.6239138      3.7636083    
     56500   2.8131723      0.35324712     0              4.5709451      3.8044563    
     57000   2.703675       0.39066201     0              4.4441943      3.8527246    
     57500   2.7552346      0.36362195     0              4.4944558      3.7465707    
     58000   2.748797       0.30893436     0              4.4301166      3.5180297    
     58500   2.6662819      0.37036936     0              4.3678394      3.7412825    
     59000   2.7084631      0.3137353      0              4.3744463      3.5335854    
     59500   2.7706703      0.32695238     0              4.4809285      3.51596      
     60000   2.7929902      0.32084963     0              4.5082893      3.590628     
     60500   2.7390337      0.32437936     0              4.4309238      3.5877565    
     61000   2.7066565      0.32220396     0              4.3802062      3.4898729    
     61500   2.6602043      0.32175501     0              4.3101131      3.4982651    
     62000   2.6157348      0.31407119     0              4.2357575      3.4715461    
     62500   2.5934275      0.28658354     0              4.1748253      3.2820217    
     63000   2.5017408      0.33016625     0              4.0809451      3.4905508    
     63500   2.5474213      0.34387206     0              4.1631382      3.5278435    
     64000   2.5719165      0.344267       0              4.200258       3.5022781    
     64500   2.5900419      0.31990988     0              4.2030757      3.4935136    
     65000   2.5500221      0.31256116     0              4.1357266      3.3470066    
     65500   2.5905578      0.29602141     0              4.1799608      3.3209749    
     66000   2.5885482      0.29451056     0              4.1754369      3.332826     
     66500   2.5679889      0.31022644     0              4.1603289      3.4564425    
     67000   2.5090187      0.27152321     0              4.0332135      3.1351511    
     67500   2.4096767      0.30874208     0              3.9214922      3.3114476    
     68000   2.3958924      0.31892479     0              3.9110085      3.3855849    
     68500   2.4372242      0.26987157     0              3.9239229      3.188199     
     69000   2.4148205      0.30156429     0              3.9220264      3.2917731    
     69500   2.4203859      0.24653645     0              3.8753426      3.0150182    
     70000   2.3877336      0.30930454     0              3.889156       3.3584256    
     70500   2.3301046      0.26743099     0              3.7608813      3.0624961    
     71000   2.3794606      0.32830567     0              3.8957538      3.3759112    
     71500   2.3672705      0.30151511     0              3.850687       3.288469     
     72000   2.382859       0.28892012     0              3.8614634      3.2430955    
     72500   2.3975075      0.27256977     0              3.867075       3.1307596    
     73000   2.3359582      0.28439061     0              3.786617       3.1889291    
     73500   2.3414816      0.29837694     0              3.8088845      3.2211933    
     74000   2.4237521      0.26009838     0              3.8939513      3.1151906    
     74500   2.3498898      0.26407942     0              3.7871931      3.0330561    
     75000   2.2599874      0.31400731     0              3.7023331      3.2073292    
     75500   2.2871741      0.22392957     0              3.6530156      2.8220969    
     76000   2.221198       0.25221408     0              3.5823842      2.9279357    
     76500   2.1599018      0.23642524     0              3.474696       2.8235547    
     77000   2.1505429      0.28826192     0              3.5125011      3.0508299    
     77500   2.1926402      0.26048225     0              3.5478366      2.921467     
     78000   2.1755039      0.25678869     0              3.5184511      2.9330815    
     78500   2.1757049      0.27444203     0              3.5364059      3.0151882    
     79000   2.1702857      0.2531522      0              3.5069911      2.8768787    
     79500   2.1622018      0.26679162     0              3.5085107      2.9544077    
     80000   2.1592468      0.25353165     0              3.4908203      2.9324928    
     80500   2.2461689      0.26414763     0              3.6317559      2.9947932    
     81000   2.1297784      0.27118777     0              3.4642954      2.9670453    
     81500   2.105289       0.21883304     0              3.3752246      2.698327     
     82000   2.0973757      0.24343015     0              3.3879575      2.8654237    
     82500   2.1051215      0.21661093     0              3.3727514      2.6904       
     83000   2.0285308      0.27538492     0              3.3166954      2.9045697    
     83500   1.994936       0.21137526     0              3.2023181      2.633074     
     84000   1.9686172      0.21186255     0              3.1633465      2.6233418    
     84500   1.955717       0.23555401     0              3.1676971      2.6607284    
     85000   1.977512       0.2116641      0              3.1764838      2.6158153    
     85500   1.9897074      0.19791234     0              3.1810162      2.538893     
     86000   1.9598353      0.21986749     0              3.158185       2.6005485    
     86500   1.9689626      0.19649914     0              3.1485009      2.477715     
     87000   1.931565       0.22571925     0              3.121652       2.6518356    
     87500   1.9695769      0.21438393     0              3.1673068      2.6407507    
     88000   1.9205514      0.21249129     0              3.0919117      2.5504976    
     88500   1.9227136      0.23639065     0              3.1190528      2.6836312    
     89000   1.8752074      0.22118034     0              3.032618       2.6067609    
     89500   1.853112       0.1999466      0              2.9782573      2.4897914    
     90000   1.8109516      0.21792945     0              2.9330304      2.5536154    
     90500   1.7561224      0.21056269     0              2.84346        2.4778988    
     91000   1.791232       0.20813758     0              2.8936736      2.4650282    
     91500   1.7871379      0.18772063     0              2.8671185      2.3414468    
     92000   1.7860692      0.19067458     0              2.8684703      2.3885424    
     92500   1.7586635      0.19594212     0              2.8326492      2.3911854    
     93000   1.7720727      0.23514433     0              2.8919554      2.6140857    
     93500   1.7939712      0.18413109     0              2.8737739      2.3041838    
     94000   1.7582468      0.18513004     0              2.8212125      2.3262521    
     94500   1.7092636      0.19934167     0              2.7619852      2.3904505    
     95000   1.6890684      0.21043675     0              2.7428022      2.4508763    
     95500   1.6961579      0.16854638     0              2.7115409      2.257761     
     96000   1.6337064      0.18956392     0              2.6389269      2.2889973    
     96500   1.6434903      0.17516513     0              2.6391968      2.2435241    
     97000   1.6224332      0.17400935     0              2.6064709      2.200013     
     97500   1.6301779      0.17564962     0              2.6197225      2.1847042    
     98000   1.6104996      0.1809374      0              2.5955073      2.2301398    
     98500   1.6235118      0.17226862     0              2.6063473      2.1794744    
     99000   1.5921512      0.16347827     0              2.5505389      2.1291462    
     99500   1.5905022      0.16983317     0              2.5544215      2.1489263    
    100000   1.5991113      0.15284581     0              2.5503415      2.0993339    
    100500   1.5424687      0.18030502     0              2.4928783      2.2144408    
    101000   1.5309962      0.17000834     0              2.4653813      2.1321969    
    101500   1.5140315      0.17708939     0              2.4470277      2.2009661    
    102000   1.4613246      0.14847581     0              2.3393925      2.0049907    
    102500   1.4670271      0.13589402     0              2.3353602      1.8718436    
    103000   1.4199101      0.13611916     0              2.2649444      1.8872451    
    103500   1.445443       0.13667289     0              2.3037788      1.8747209    
    104000   1.4338953      0.15246618     0              2.302259       1.9862788    
    104500   1.447904       0.14406676     0              2.3148622      1.9549403    
    105000   1.3992663      0.16445927     0              2.2623338      2.0583939    
    105500   1.4348009      0.14459752     0              2.295748       1.9681732    
    106000   1.3818332      0.15093181     0              2.2226695      1.957975     
    106500   1.3559914      0.1465546      0              2.1795485      1.9094512    
    107000   1.3474649      0.11691228     0              2.1371227      1.7419408    
    107500   1.3027421      0.14458892     0              2.0977479      1.8620808    
    108000   1.303896       0.13718428     0              2.0920733      1.8589723    
    108500   1.2500338      0.13332979     0              2.0074649      1.8298844    
    109000   1.2848835      0.10957471     0              2.0359589      1.668404     
    109500   1.2516403      0.14514862     0              2.0216924      1.8720205    
    110000   1.2612921      0.11846764     0              2.009482       1.6872899    
    110500   1.2539983      0.13895228     0              2.0190313      1.8049215    
    111000   1.234805       0.12651317     0              1.9778163      1.7284318    
    111500   1.2280885      0.12066537     0              1.9618986      1.6958768    
    112000   1.2038201      0.12187551     0              1.926724       1.7004459    
    112500   1.1970402      0.12913138     0              1.923815       1.7050224    
    113000   1.1817262      0.11110027     0              1.8828241      1.593578     
    113500   1.1678828      0.13108321     0              1.8820521      1.7552102    
    114000   1.1939028      0.10933551     0              1.8993152      1.6081625    
    114500   1.1697142      0.10218706     0              1.8559016      1.5487742    
    115000   1.1050169      0.10706705     0              1.763783       1.5606923    
    115500   1.0820522      0.10366285     0              1.7259486      1.5003423    
    116000   1.0596124      0.12313913     0              1.7117817      1.6289645    
    116500   1.0518593      0.11074306     0              1.6877616      1.5236392    
    117000   1.0495682      0.091513194    0              1.6650968      1.3961856    
    117500   1.0435748      0.09784291     0              1.6624407      1.4418584    
    118000   1.0449205      0.10750673     0              1.6741222      1.5433518    
    118500   1.0181488      0.098206823    0              1.6246843      1.4360263    
    119000   1.0132852      0.09237669     0              1.6115624      1.4226348    
    119500   0.99346127     0.10509601     0              1.5945603      1.4584485    
    120000   0.97323194     0.088114113    0              1.5472492      1.3419085    
    120500   0.94205586     0.096193402    0              1.5085872      1.363494     
    121000   0.91881435     0.081233829    0              1.4587824      1.2435063    
    121500   0.91299436     0.10055055     0              1.4693734      1.3811013    
    122000   0.91400971     0.079656833    0              1.450002       1.2064345    
    122500   0.91387563     0.080437277    0              1.4505814      1.2605472    
    123000   0.90120733     0.081246285    0              1.4323972      1.2967355    
    123500   0.87258672     0.084655191    0              1.3928962      1.3024417    
    124000   0.87539866     0.06710937     0              1.3795662      1.1449435    
    124500   0.85985763     0.079116381    0              1.368273       1.2562499    
    125000   0.81980854     0.072457597    0              1.30157        1.1466846    
    125500   0.816843       0.067904234    0              1.2925705      1.107787     
    126000   0.80684019     0.071772882    0              1.2814422      1.158288     
    126500   0.80218822     0.074139929    0              1.2768347      1.1762759    
    127000   0.76246054     0.078421785    0              1.2215542      1.2024738    
    127500   0.77443505     0.077601309    0              1.2386867      1.1872978    
    128000   0.74244697     0.059006573    0              1.1721332      0.99026734   
    128500   0.72393675     0.066410364    0              1.1517853      1.068279     
    129000   0.71154239     0.05994522     0              1.1267377      1.0160106    
    129500   0.6769684      0.062641793    0              1.0775986      0.99678313   
    130000   0.6668918      0.062331395    0              1.0621807      1.0085501    
    130500   0.66303153     0.052479737    0              1.0465414      0.92958116   
    131000   0.64935414     0.058449582    0              1.0320052      0.97408064   
    131500   0.63944192     0.054625392    0              1.0133199      0.9593104    
    132000   0.63989959     0.044149137    0              1.0035299      0.84509824   
    132500   0.60683318     0.044535554    0              0.95434087     0.83211201   
    133000   0.60140546     0.046038125    0              0.94770583     0.87040548   
    133500   0.57926635     0.054716714    0              0.92319198     0.90652077   
    134000   0.5790341      0.04316137     0              0.91128842     0.80471823   
    134500   0.54231171     0.043922264    0              0.85699263     0.78691453   
    135000   0.52748402     0.040326686    0              0.83116637     0.77449687   
    135500   0.52084236     0.039460015    0              0.82034207     0.77550987   
    136000   0.50855701     0.041091126    0              0.80355416     0.76195086   
    136500   0.50117555     0.038188757    0              0.78958501     0.7334357    
    137000   0.46975359     0.03672431     0              0.74101064     0.69637151   
    137500   0.45633267     0.033346278    0              0.71751106     0.661279     
    138000   0.45233515     0.031591743    0              0.70976316     0.63367093   
    138500   0.4389446      0.02963611     0              0.68773151     0.61950718   
    139000   0.42717525     0.031525866    0              0.67197586     0.61642632   
    139500   0.40823442     0.027980236    0              0.64003287     0.58800637   
    140000   0.40492977     0.03072241     0              0.63782048     0.62851054   
    140500   0.3673196      0.028710583    0              0.57942096     0.5708856    
    141000   0.3652885      0.020823208    0              0.56848842     0.49802284   
    141500   0.34820126     0.025379965    0              0.54742683     0.53824468   
    142000   0.3312705      0.020193525    0              0.51685664     0.46671555   
    142500   0.30970745     0.023651059    0              0.4879854      0.50077555   
    143000   0.30958596     0.015495295    0              0.47964748     0.41878646   
    143500   0.29292852     0.018087142    0              0.45726537     0.42490102   
    144000   0.26678059     0.017635034    0              0.41761052     0.4276754    
    144500   0.25918377     0.015718171    0              0.404304       0.38437651   
    145000   0.25045495     0.011849199    0              0.38734819     0.33973571   
    145500   0.232178       0.014005861    0              0.3621028      0.36287535   
    146000   0.21315327     0.012252724    0              0.33182652     0.33163282   
    146500   0.20128086     0.011585993    0              0.31335986     0.30901349   
    147000   0.19210082     0.0086650709   0              0.2966756      0.27504372   
    147500   0.16973328     0.008035149    0              0.26251076     0.25598067   
    148000   0.15996828     0.007770272    0              0.24760553     0.2441768    
    148500   0.14513272     0.0076366268   0              0.22522941     0.2285568    
    149000   0.13004318     0.0066970812   0              0.2016666      0.20567394   
    149500   0.11660759     0.0041290164   0              0.17895499     0.16079685   
    150000   0.10214395     0.0036042941   0              0.1567454      0.14471642   
Loop time of 8.42447 on 4 procs for 100000 steps with 2048 atoms

Performance: 10255833.377 tau/day, 11870.178 timesteps/s, 24.310 Matom-step/s
99.5% CPU use with 4 MPI tasks x 1 OpenMP threads

MPI task timing breakdown:
Section |  min time  |  avg time  |  max time  |%varavg| %total
---------------------------------------------------------------
Pair    | 0.86729    | 0.88459    | 0.913      |   1.8 | 10.50
Neigh   | 4.6511     | 4.6817     | 4.7158     |   1.2 | 55.57
Comm    | 1.7007     | 1.764      | 1.8131     |   3.2 | 20.94
Output  | 0.054373   | 0.054971   | 0.056728   |   0.4 |  0.65
Modify  | 0.71913    | 0.72268    | 0.7314     |   0.6 |  8.58
Other   |            | 0.3165     |            |       |  3.76

Nlocal:            512 ave         520 max         504 min
Histogram: 1 1 0 0 0 0 0 0 1 1
Nghost:            530 ave         542 max         519 min
Histogram: 1 1 0 0 0 0 0 1 0 1
Neighs:           1030 ave        1054 max         991 min
Histogram: 1 0 0 0 0 0 1 0 1 1

Total # of neighbors = 4120
Ave neighs/atom = 2.0117188
Neighbor list builds = 28642
Dangerous builds = 0
Total wall time: 0:00:13
