LAMMPS (15 Sep 2022)
OMP_NUM_THREADS environment is not set. Defaulting to 1 thread. (src/comm.cpp:98)
  using 1 OpenMP thread(s) per MPI task
Lattice spacing in x,y,z = 1.118034 1.118034 1.118034
Created orthogonal box = (0 0 0) to (8.9442719 8.9442719 8.9442719)
  4 by 2 by 1 MPI processor grid
Created 512 atoms
  using lattice units in orthogonal box = (0 0 0) to (8.9442719 8.9442719 8.9442719)
  create_atoms CPU = 0.000 seconds
Generated 0 of 0 mixed pair_coeff terms from geometric mixing rule
Neighbor list info ...
  update: every = 1 steps, delay = 0 steps, check = yes
  max neighbors/atom: 2000, page size: 100000
  master list distance cutoff = 1.3
  ghost atom cutoff = 1.3
  binsize = 0.65, bins = 14 14 14
  1 neighbor lists, perpetual/occasional/extra = 1 0 0
  (1) pair lj/cut, perpetual
      attributes: half, newton on
      pair build: half/bin/atomonly/newton
      stencil: half/bin/2d
      bin: standard
Setting up Verlet run ...
  Unit style    : lj
  Current step  : 0
  Time step     : 0.01
Per MPI rank memory allocation (min/avg/max) = 3.049 | 3.049 | 3.049 Mbytes
   Step          Temp          E_pair         E_mol          TotEng         Press     
         0   3              0              0              2.9941406      19.1625      
       500   2.9727508      0.57484598     0              3.5417906      90.239431    
      1000   3.1247315      0.57833209     0              3.6969606      94.271087    
      1500   3.0382478      0.65063691     0              3.6829506      99.715034    
      2000   3.0821859      0.61540298     0              3.691569       94.339097    
      2500   3.2097096      0.64011198     0              3.8435526      98.931041    
      3000   3.1158402      0.82915528     0              3.9389099      113.62858    
      3500   3.2740944      0.65380025     0              3.9215         100.90184    
      4000   3.0094456      0.77376643     0              3.7773342      107.98352    
      4500   3.1422794      0.6812406      0              3.8173828      100.89851    
      5000   3.2604063      0.77594878     0              4.0299871      112.42396    
      5500   3.0367009      0.68251456     0              3.7132844      98.382761    
      6000   3.080669       0.61455768     0              3.6892098      96.868895    
      6500   3.1627785      0.73253023     0              3.8891315      104.11464    
ERROR: Lost atoms: original 512 current 502 (src/thermo.cpp:481)
Last command: run ${equil_steps}
--------------------------------------------------------------------------
Primary job  terminated normally, but 1 process returned
a non-zero exit code. Per user-direction, the job has been aborted.
--------------------------------------------------------------------------
--------------------------------------------------------------------------
mpirun detected that one or more processes exited with non-zero status, thus causing
the job to be terminated. The first process to do so was:

  Process name: [[40396,1],5]
  Exit code:    1
--------------------------------------------------------------------------
LAMMPS (15 Sep 2022)
OMP_NUM_THREADS environment is not set. Defaulting to 1 thread. (src/comm.cpp:98)
  using 1 OpenMP thread(s) per MPI task
Lattice spacing in x,y,z = 1.0540926 1.0540926 1.0540926
Created orthogonal box = (0 0 0) to (8.4327404 8.4327404 8.4327404)
  2 by 4 by 1 MPI processor grid
Created 512 atoms
  using lattice units in orthogonal box = (0 0 0) to (8.4327404 8.4327404 8.4327404)
  create_atoms CPU = 0.001 seconds
Generated 0 of 0 mixed pair_coeff terms from geometric mixing rule
Neighbor list info ...
  update: every = 1 steps, delay = 0 steps, check = yes
  max neighbors/atom: 2000, page size: 100000
  master list distance cutoff = 1.3
  ghost atom cutoff = 1.3
  binsize = 0.65, bins = 13 13 13
  1 neighbor lists, perpetual/occasional/extra = 1 0 0
  (1) pair lj/cut, perpetual
      attributes: half, newton on
      pair build: half/bin/atomonly/newton
      stencil: half/bin/2d
      bin: standard
Setting up Verlet run ...
  Unit style    : lj
  Current step  : 0
  Time step     : 0.01
Per MPI rank memory allocation (min/avg/max) = 3.049 | 3.049 | 3.049 Mbytes
   Step          Temp          E_pair         E_mol          TotEng         Press     
         0   3              0              0              2.9941406      21.557812    
       500   3.0984688      0.91023708     0              4.0026542      147.15705    
      1000   3.0729919      0.98044883     0              4.0474388      156.3564     
      1500   2.9888704      0.90470304     0              3.8877358      145.70938    
      2000   2.9832152      0.9779458      0              3.9553345      150.78018    
      2500   2.8859623      1.0089344      0              3.88926        151.7682     
      3000   2.9318113      0.92747539     0              3.8535605      145.70563    
      3500   2.7345451      1.0940239      0              3.8232281      161.65038    
      4000   2.9980701      0.87203131     0              3.8642458      142.01102    
      4500   2.7422537      1.1240097      0              3.8609074      162.55862    
      5000   2.8255767      0.88411247     0              3.7041705      136.52841    
ERROR: Lost atoms: original 512 current 508 (src/thermo.cpp:481)
Last command: run ${equil_steps}
--------------------------------------------------------------------------
Primary job  terminated normally, but 1 process returned
a non-zero exit code. Per user-direction, the job has been aborted.
--------------------------------------------------------------------------
--------------------------------------------------------------------------
mpirun detected that one or more processes exited with non-zero status, thus causing
the job to be terminated. The first process to do so was:

  Process name: [[40438,1],1]
  Exit code:    1
--------------------------------------------------------------------------
LAMMPS (15 Sep 2022)
OMP_NUM_THREADS environment is not set. Defaulting to 1 thread. (src/comm.cpp:98)
  using 1 OpenMP thread(s) per MPI task
Lattice spacing in x,y,z = 1 1 1
Created orthogonal box = (0 0 0) to (8 8 8)
  4 by 2 by 1 MPI processor grid
Created 512 atoms
  using lattice units in orthogonal box = (0 0 0) to (8 8 8)
  create_atoms CPU = 0.000 seconds
Generated 0 of 0 mixed pair_coeff terms from geometric mixing rule
Neighbor list info ...
  update: every = 1 steps, delay = 0 steps, check = yes
  max neighbors/atom: 2000, page size: 100000
  master list distance cutoff = 1.3
  ghost atom cutoff = 1.3
  binsize = 0.65, bins = 13 13 13
  1 neighbor lists, perpetual/occasional/extra = 1 0 0
  (1) pair lj/cut, perpetual
      attributes: half, newton on
      pair build: half/bin/atomonly/newton
      stencil: half/bin/2d
      bin: standard
Setting up Verlet run ...
  Unit style    : lj
  Current step  : 0
  Time step     : 0.01
Per MPI rank memory allocation (min/avg/max) = 3.049 | 3.049 | 3.049 Mbytes
   Step          Temp          E_pair         E_mol          TotEng         Press     
         0   3              0              0              2.9941406      23.953125    
       500   3.1923568      1.6485857      0              4.8347075      259.25163    
      1000   3.1390061      1.6619773      0              4.7948525      262.6411     
      1500   3.3543226      1.6303386      0              4.9781098      261.92331    
      2000   3.1581057      1.5899115      0              4.741849       246.07674    
      2500   3.141798       1.7636464      0              4.8993081      265.05295    
      3000   3.3580487      1.5375113      0              4.8890013      250.6809     
ERROR: Lost atoms: original 512 current 508 (src/thermo.cpp:481)
Last command: run ${equil_steps}
--------------------------------------------------------------------------
Primary job  terminated normally, but 1 process returned
a non-zero exit code. Per user-direction, the job has been aborted.
--------------------------------------------------------------------------
--------------------------------------------------------------------------
mpirun detected that one or more processes exited with non-zero status, thus causing
the job to be terminated. The first process to do so was:

  Process name: [[40349,1],1]
  Exit code:    1
--------------------------------------------------------------------------
LAMMPS (15 Sep 2022)
OMP_NUM_THREADS environment is not set. Defaulting to 1 thread. (src/comm.cpp:98)
  using 1 OpenMP thread(s) per MPI task
Lattice spacing in x,y,z = 0.95346259 0.95346259 0.95346259
Created orthogonal box = (0 0 0) to (7.6277007 7.6277007 7.6277007)
  4 by 2 by 1 MPI processor grid
Created 512 atoms
  using lattice units in orthogonal box = (0 0 0) to (7.6277007 7.6277007 7.6277007)
  create_atoms CPU = 0.000 seconds
Generated 0 of 0 mixed pair_coeff terms from geometric mixing rule
Neighbor list info ...
  update: every = 1 steps, delay = 0 steps, check = yes
  max neighbors/atom: 2000, page size: 100000
  master list distance cutoff = 1.3
  ghost atom cutoff = 1.3
  binsize = 0.65, bins = 12 12 12
  1 neighbor lists, perpetual/occasional/extra = 1 0 0
  (1) pair lj/cut, perpetual
      attributes: half, newton on
      pair build: half/bin/atomonly/newton
      stencil: half/bin/2d
      bin: standard
Setting up Verlet run ...
  Unit style    : lj
  Current step  : 0
  Time step     : 0.01
Per MPI rank memory allocation (min/avg/max) = 3.049 | 3.049 | 3.049 Mbytes
   Step          Temp          E_pair         E_mol          TotEng         Press     
         0   3              3.1498787      0              6.1440194      491.58085    
[gr039:331656:0:331656] Caught signal 11 (Segmentation fault: address not mapped to object at address 0x137fc8f0)
==== backtrace (tid: 331656) ====
 0 0x0000000000012b20 .annobin_sigaction.c()  sigaction.c:0
 1 0x0000000000572e9c LAMMPS_NS::NPairHalfBinAtomonlyNewton::build()  /scratch/work/hockygroup/gmh4/Downloads/lammps-github-Oct2022/src/npair_half_bin_atomonly_newton.cpp:95
 2 0x0000000000569f9f LAMMPS_NS::Neighbor::build()  /scratch/work/hockygroup/gmh4/Downloads/lammps-github-Oct2022/src/neighbor.cpp:2430
 3 0x000000000064a2c9 LAMMPS_NS::Verlet::run()  /scratch/work/hockygroup/gmh4/Downloads/lammps-github-Oct2022/src/verlet.cpp:293
 4 0x00000000005e4b86 LAMMPS_NS::Run::command()  /scratch/work/hockygroup/gmh4/Downloads/lammps-github-Oct2022/src/run.cpp:176
 5 0x00000000004f4b44 LAMMPS_NS::Input::execute_command()  /scratch/work/hockygroup/gmh4/Downloads/lammps-github-Oct2022/src/input.cpp:847
 6 0x00000000004f4f25 LAMMPS_NS::Input::file()  /scratch/work/hockygroup/gmh4/Downloads/lammps-github-Oct2022/src/input.cpp:302
 7 0x00000000004d154a main()  /scratch/work/hockygroup/gmh4/Downloads/lammps-github-Oct2022/src/main.cpp:98
 8 0x0000000000023493 __libc_start_main()  ???:0
 9 0x00000000004d4b7e _start()  ???:0
=================================
[gr039:331656] *** Process received signal ***
[gr039:331656] Signal: Segmentation fault (11)
[gr039:331656] Signal code:  (-6)
[gr039:331656] Failing at address: 0x31c49a00050f88
[gr039:331656] [ 0] /lib64/libpthread.so.0(+0x12b20)[0x14cb271bbb20]
[gr039:331656] [ 1] lmp[0x572e9c]
[gr039:331656] [ 2] lmp[0x569f9f]
[gr039:331656] [ 3] lmp[0x64a2c9]
[gr039:331656] [ 4] lmp[0x5e4b86]
[gr039:331656] [ 5] lmp[0x4f4b44]
[gr039:331656] [ 6] lmp[0x4f4f25]
[gr039:331656] [ 7] lmp[0x4d154a]
[gr039:331656] [ 8] /lib64/libc.so.6(__libc_start_main+0xf3)[0x14cb1ca8d493]
[gr039:331656] [ 9] lmp[0x4d4b7e]
[gr039:331656] *** End of error message ***
--------------------------------------------------------------------------
Primary job  terminated normally, but 1 process returned
a non-zero exit code. Per user-direction, the job has been aborted.
--------------------------------------------------------------------------
--------------------------------------------------------------------------
mpirun noticed that process rank 5 with PID 331656 on node gr039 exited on signal 11 (Segmentation fault).
--------------------------------------------------------------------------
LAMMPS (15 Sep 2022)
OMP_NUM_THREADS environment is not set. Defaulting to 1 thread. (src/comm.cpp:98)
  using 1 OpenMP thread(s) per MPI task
Lattice spacing in x,y,z = 0.91287093 0.91287093 0.91287093
Created orthogonal box = (0 0 0) to (7.3029674 7.3029674 7.3029674)
  4 by 2 by 1 MPI processor grid
Created 512 atoms
  using lattice units in orthogonal box = (0 0 0) to (7.3029674 7.3029674 7.3029674)
  create_atoms CPU = 0.000 seconds
Generated 0 of 0 mixed pair_coeff terms from geometric mixing rule
Neighbor list info ...
  update: every = 1 steps, delay = 0 steps, check = yes
  max neighbors/atom: 2000, page size: 100000
  master list distance cutoff = 1.3
  ghost atom cutoff = 1.3
  binsize = 0.65, bins = 12 12 12
  1 neighbor lists, perpetual/occasional/extra = 1 0 0
  (1) pair lj/cut, perpetual
      attributes: half, newton on
      pair build: half/bin/atomonly/newton
      stencil: half/bin/2d
      bin: standard
Setting up Verlet run ...
  Unit style    : lj
  Current step  : 0
  Time step     : 0.01
Per MPI rank memory allocation (min/avg/max) = 3.049 | 3.049 | 3.049 Mbytes
   Step          Temp          E_pair         E_mol          TotEng         Press     
         0   3              15.23704       0              18.231181      1477.9413    
[gr039:331697:0:331697] Caught signal 11 (Segmentation fault: address not mapped to object at address 0x14c9d340)
==== backtrace (tid: 331697) ====
 0 0x0000000000012b20 .annobin_sigaction.c()  sigaction.c:0
 1 0x0000000000572e9c LAMMPS_NS::NPairHalfBinAtomonlyNewton::build()  /scratch/work/hockygroup/gmh4/Downloads/lammps-github-Oct2022/src/npair_half_bin_atomonly_newton.cpp:95
 2 0x0000000000569f9f LAMMPS_NS::Neighbor::build()  /scratch/work/hockygroup/gmh4/Downloads/lammps-github-Oct2022/src/neighbor.cpp:2430
 3 0x000000000064a2c9 LAMMPS_NS::Verlet::run()  /scratch/work/hockygroup/gmh4/Downloads/lammps-github-Oct2022/src/verlet.cpp:293
 4 0x00000000005e4b86 LAMMPS_NS::Run::command()  /scratch/work/hockygroup/gmh4/Downloads/lammps-github-Oct2022/src/run.cpp:176
 5 0x00000000004f4b44 LAMMPS_NS::Input::execute_command()  /scratch/work/hockygroup/gmh4/Downloads/lammps-github-Oct2022/src/input.cpp:847
 6 0x00000000004f4f25 LAMMPS_NS::Input::file()  /scratch/work/hockygroup/gmh4/Downloads/lammps-github-Oct2022/src/input.cpp:302
 7 0x00000000004d154a main()  /scratch/work/hockygroup/gmh4/Downloads/lammps-github-Oct2022/src/main.cpp:98
 8 0x0000000000023493 __libc_start_main()  ???:0
 9 0x00000000004d4b7e _start()  ???:0
=================================
[gr039:331697] *** Process received signal ***
[gr039:331697] Signal: Segmentation fault (11)
[gr039:331697] Signal code:  (-6)
[gr039:331697] Failing at address: 0x31c49a00050fb1
[gr039:331697] [ 0] /lib64/libpthread.so.0(+0x12b20)[0x14a1c4292b20]
[gr039:331697] [ 1] lmp[0x572e9c]
[gr039:331697] [ 2] lmp[0x569f9f]
[gr039:331697] [ 3] lmp[0x64a2c9]
[gr039:331697] [ 4] lmp[0x5e4b86]
[gr039:331697] [ 5] lmp[0x4f4b44]
[gr039:331697] [ 6] lmp[0x4f4f25]
[gr039:331697] [ 7] lmp[0x4d154a]
[gr039:331697] [ 8] /lib64/libc.so.6(__libc_start_main+0xf3)[0x14a1b9b64493]
[gr039:331697] [ 9] lmp[0x4d4b7e]
[gr039:331697] *** End of error message ***
--------------------------------------------------------------------------
Primary job  terminated normally, but 1 process returned
a non-zero exit code. Per user-direction, the job has been aborted.
--------------------------------------------------------------------------
--------------------------------------------------------------------------
mpirun noticed that process rank 7 with PID 331697 on node gr039 exited on signal 11 (Segmentation fault).
--------------------------------------------------------------------------
LAMMPS (15 Sep 2022)
OMP_NUM_THREADS environment is not set. Defaulting to 1 thread. (src/comm.cpp:98)
  using 1 OpenMP thread(s) per MPI task
Lattice spacing in x,y,z = 0.87705802 0.87705802 0.87705802
Created orthogonal box = (0 0 0) to (7.0164642 7.0164642 7.0164642)
  4 by 2 by 1 MPI processor grid
Created 512 atoms
  using lattice units in orthogonal box = (0 0 0) to (7.0164642 7.0164642 7.0164642)
  create_atoms CPU = 0.000 seconds
Generated 0 of 0 mixed pair_coeff terms from geometric mixing rule
Neighbor list info ...
  update: every = 1 steps, delay = 0 steps, check = yes
  max neighbors/atom: 2000, page size: 100000
  master list distance cutoff = 1.3
  ghost atom cutoff = 1.3
  binsize = 0.65, bins = 11 11 11
  1 neighbor lists, perpetual/occasional/extra = 1 0 0
  (1) pair lj/cut, perpetual
      attributes: half, newton on
      pair build: half/bin/atomonly/newton
      stencil: half/bin/2d
      bin: standard
Setting up Verlet run ...
  Unit style    : lj
  Current step  : 0
  Time step     : 0.01
Per MPI rank memory allocation (min/avg/max) = 3.049 | 3.049 | 3.049 Mbytes
   Step          Temp          E_pair         E_mol          TotEng         Press     
         0   3              41.193259      0              44.187399      3313.1407    
[gr039:331753:0:331753] Caught signal 11 (Segmentation fault: address not mapped to object at address 0x14f4000000ff)
[gr039:331754:0:331754] Caught signal 11 (Segmentation fault: address not mapped to object at address 0x176220f0)
[gr039:331755:0:331755] Caught signal 11 (Segmentation fault: address not mapped to object at address 0x17c4e700)
[gr039:331756:0:331756] Caught signal 11 (Segmentation fault: address not mapped to object at address 0x17d9e33b0)
[gr039:331757:0:331757] Caught signal 11 (Segmentation fault: address not mapped to object at address 0xd790efa4)
[gr039:331758:0:331758] Caught signal 11 (Segmentation fault: address not mapped to object at address 0xe602b53b48)
corrupted double-linked list
corrupted double-linked list
[gr039:331754] *** Process received signal ***
[gr039:331754] Signal: Aborted (6)
[gr039:331754] Signal code:  (-6)
[gr039:331754] [ 0] /lib64/libpthread.so.0(+0x12b20)[0x14d2413c5b20]
[gr039:331754] [ 1] /lib64/libc.so.6(gsignal+0x10f)[0x14d236cab37f]
[gr039:331754] [ 2] /lib64/libc.so.6(abort+0x127)[0x14d236c95db5]
[gr039:331754] [ 3] [gr039:331757] *** Process received signal ***
[gr039:331757] Signal: Aborted (6)
[gr039:331757] Signal code:  (-6)
[gr039:331757] [ 0] /lib64/libpthread.so.0(+0x12b20)[0x14fce2fd6b20]
[gr039:331757] [ 1] /lib64/libc.so.6(gsignal+0x10f)[0x14fcd88bc37f]
[gr039:331757] [ 2] /lib64/libc.so.6(abort+0x127)[0x14fcd88a6db5]
[gr039:331757] [ 3] /lib64/libc.so.6(+0x7a4e7)[0x14fcd88ff4e7]
[gr039:331757] [ 4] /lib64/libc.so.6(+0x815ec)[0x14fcd89065ec]
[gr039:331757] [ 5] /lib64/libc.so.6(+0x81e2c)[0x14fcd8906e2c]
[gr039:331757] [ 6] /lib64/libc.so.6(+0x849ab)[0x14fcd89099ab]
[gr039:331757] [ 7] /lib64/libc.so.6(__libc_malloc+0x1e2)[0x14fcd890ac72]
[gr039:331757] [ 8] /lib64/libucs.so.0(xmalloc+0x1c)[0x14fcc667ffec]
[gr039:331757] [ 9] /lib64/libucs.so.0(xstrdup+0x1e)[0x14fcc668011e]
[gr039:331757] [10] /lib64/libucs.so.0(+0x70254)[0x14fcc65c9254]
[gr039:331757] [11] /lib64/libucs.so.0(+0x5927e)[0x14fcc65b227e]
[gr039:331757] [12] /lib64/libucs.so.0(+0x59b88)[0x14fcc65b2b88]
[gr039:331757] [13] /lib64/libucs.so.0(ucs_debug_backtrace_create+0x49)[0x14fcc65b2f39]
[gr039:331757] [14] /lib64/libucs.so.0(+0x5a4a4)[0x14fcc65b34a4]
[gr039:331757] [15] /lib64/libucs.so.0(ucs_handle_error+0x2b0)[0x14fcc65b5c00]
[gr039:331757] [16] /lib64/libucs.so.0(+0x5cdec)[0x14fcc65b5dec]
[gr039:331757] [17] /lib64/libucs.so.0(+0x5cfba)[0x14fcc65b5fba]
[gr039:331757] [18] /lib64/libpthread.so.0(+0x12b20)[0x14fce2fd6b20]
[gr039:331757] [19] lmp[0x572e9c]
[gr039:331757] [20] lmp[0x569f9f]
[gr039:331757] [21] lmp[0x64a2c9]
[gr039:331757] [22] lmp[0x5e4b86]
[gr039:331757] [23] lmp[0x4f4b44]
[gr039:331757] [24] lmp[0x4f4f25]
[gr039:331757] [25] lmp[0x4d154a]
[gr039:331757] [26] /lib64/libc.so.6(__libc_start_main+0xf3)[0x14fcd88a8493]
[gr039:331757] [27] lmp[0x4d4b7e]
[gr039:331757] *** End of error message ***
/lib64/libc.so.6(+0x7a4e7)[0x14d236cee4e7]
[gr039:331754] [ 4] /lib64/libc.so.6(+0x815ec)[0x14d236cf55ec]
[gr039:331754] [ 5] /lib64/libc.so.6(+0x81e2c)[0x14d236cf5e2c]
[gr039:331754] [ 6] /lib64/libc.so.6(+0x849ab)[0x14d236cf89ab]
[gr039:331754] [ 7] /lib64/libc.so.6(__libc_malloc+0x1e2)[0x14d236cf9c72]
[gr039:331754] [ 8] /lib64/libucs.so.0(objalloc_create+0xf)[0x14d228b3e23f]
[gr039:331754] [ 9] /lib64/libucs.so.0(+0x6e273)[0x14d228a86273]
[gr039:331754] [10] /lib64/libucs.so.0(+0x7008c)[0x14d228a8808c]
[gr039:331754] [11] /lib64/libucs.so.0(+0x7020c)[0x14d228a8820c]
[gr039:331754] [12] /lib64/libucs.so.0(+0x70b32)[0x14d228a88b32]
[gr039:331754] [13] /lib64/libucs.so.0(+0x6fdd7)[0x14d228a87dd7]
[gr039:331754] [14] /lib64/libucs.so.0(+0x713e0)[0x14d228a893e0]
[gr039:331754] [15] /lib64/libucs.so.0(+0xbbd8f)[0x14d228ad3d8f]
[gr039:331754] [16] /lib64/libucs.so.0(+0xbc018)[0x14d228ad4018]
[gr039:331754] [17] /lib64/libucs.so.0(+0x946eb)[0x14d228aac6eb]
[gr039:331754] [18] /lib64/libucs.so.0(+0x59406)[0x14d228a71406]
[gr039:331754] [19] /lib64/libucs.so.0(+0x71d27)[0x14d228a89d27]
[gr039:331754] [20] /lib64/libucs.so.0(+0x59bde)[0x14d228a71bde]
[gr039:331754] [21] /lib64/libucs.so.0(ucs_debug_backtrace_create+0x49)[0x14d228a71f39]
[gr039:331754] [22] /lib64/libucs.so.0(+0x5a4a4)[0x14d228a724a4]
[gr039:331754] [23] /lib64/libucs.so.0(ucs_handle_error+0x2b0)[0x14d228a74c00]
[gr039:331754] [24] /lib64/libucs.so.0(+0x5cdec)[0x14d228a74dec]
[gr039:331754] [25] /lib64/libucs.so.0(+0x5cfba)[0x14d228a74fba]
[gr039:331754] [26] /lib64/libpthread.so.0(+0x12b20)[0x14d2413c5b20]
[gr039:331754] [27] lmp[0x572ce3]
[gr039:331754] [28] lmp[0x569f9f]
[gr039:331754] [29] lmp[0x64a2c9]
[gr039:331754] *** End of error message ***
--------------------------------------------------------------------------
Primary job  terminated normally, but 1 process returned
a non-zero exit code. Per user-direction, the job has been aborted.
--------------------------------------------------------------------------
--------------------------------------------------------------------------
mpirun noticed that process rank 5 with PID 331757 on node gr039 exited on signal 6 (Aborted).
--------------------------------------------------------------------------
2 total processes killed (some possibly by mpirun during cleanup)
LAMMPS (15 Sep 2022)
OMP_NUM_THREADS environment is not set. Defaulting to 1 thread. (src/comm.cpp:98)
  using 1 OpenMP thread(s) per MPI task
Lattice spacing in x,y,z = 0.84515425 0.84515425 0.84515425
Created orthogonal box = (0 0 0) to (6.761234 6.761234 6.761234)
  4 by 2 by 1 MPI processor grid
Created 512 atoms
  using lattice units in orthogonal box = (0 0 0) to (6.761234 6.761234 6.761234)
  create_atoms CPU = 0.000 seconds
Generated 0 of 0 mixed pair_coeff terms from geometric mixing rule
Neighbor list info ...
  update: every = 1 steps, delay = 0 steps, check = yes
  max neighbors/atom: 2000, page size: 100000
  master list distance cutoff = 1.3
  ghost atom cutoff = 1.3
  binsize = 0.65, bins = 11 11 11
  1 neighbor lists, perpetual/occasional/extra = 1 0 0
  (1) pair lj/cut, perpetual
      attributes: half, newton on
      pair build: half/bin/atomonly/newton
      stencil: half/bin/2d
      bin: standard
Setting up Verlet run ...
  Unit style    : lj
  Current step  : 0
  Time step     : 0.01
Per MPI rank memory allocation (min/avg/max) = 3.049 | 3.049 | 3.049 Mbytes
   Step          Temp          E_pair         E_mol          TotEng         Press     
         0   3              87.44416       0              90.438301      6465.2948    
[gr039:331809:0:331809] Caught signal 11 (Segmentation fault: address not mapped to object at address 0x11469390)
==== backtrace (tid: 331809) ====
 0 0x0000000000012b20 .annobin_sigaction.c()  sigaction.c:0
 1 0x0000000000572e9c LAMMPS_NS::NPairHalfBinAtomonlyNewton::build()  /scratch/work/hockygroup/gmh4/Downloads/lammps-github-Oct2022/src/npair_half_bin_atomonly_newton.cpp:95
 2 0x0000000000569f9f LAMMPS_NS::Neighbor::build()  /scratch/work/hockygroup/gmh4/Downloads/lammps-github-Oct2022/src/neighbor.cpp:2430
 3 0x000000000064a2c9 LAMMPS_NS::Verlet::run()  /scratch/work/hockygroup/gmh4/Downloads/lammps-github-Oct2022/src/verlet.cpp:293
 4 0x00000000005e4b86 LAMMPS_NS::Run::command()  /scratch/work/hockygroup/gmh4/Downloads/lammps-github-Oct2022/src/run.cpp:176
 5 0x00000000004f4b44 LAMMPS_NS::Input::execute_command()  /scratch/work/hockygroup/gmh4/Downloads/lammps-github-Oct2022/src/input.cpp:847
 6 0x00000000004f4f25 LAMMPS_NS::Input::file()  /scratch/work/hockygroup/gmh4/Downloads/lammps-github-Oct2022/src/input.cpp:302
 7 0x00000000004d154a main()  /scratch/work/hockygroup/gmh4/Downloads/lammps-github-Oct2022/src/main.cpp:98
 8 0x0000000000023493 __libc_start_main()  ???:0
 9 0x00000000004d4b7e _start()  ???:0
=================================
[gr039:331809] *** Process received signal ***
[gr039:331809] Signal: Segmentation fault (11)
[gr039:331809] Signal code:  (-6)
[gr039:331809] Failing at address: 0x31c49a00051021
[gr039:331809] [ 0] /lib64/libpthread.so.0(+0x12b20)[0x14711c1aab20]
[gr039:331809] [ 1] lmp[0x572e9c]
[gr039:331809] [ 2] lmp[0x569f9f]
[gr039:331809] [ 3] lmp[0x64a2c9]
[gr039:331809] [ 4] lmp[0x5e4b86]
[gr039:331809] [ 5] lmp[0x4f4b44]
[gr039:331809] [ 6] lmp[0x4f4f25]
[gr039:331809] [ 7] lmp[0x4d154a]
[gr039:331809] [ 8] /lib64/libc.so.6(__libc_start_main+0xf3)[0x147111a7c493]
[gr039:331809] [ 9] lmp[0x4d4b7e]
[gr039:331809] *** End of error message ***
--------------------------------------------------------------------------
Primary job  terminated normally, but 1 process returned
a non-zero exit code. Per user-direction, the job has been aborted.
--------------------------------------------------------------------------
--------------------------------------------------------------------------
mpirun noticed that process rank 6 with PID 331809 on node gr039 exited on signal 11 (Segmentation fault).
--------------------------------------------------------------------------
LAMMPS (15 Sep 2022)
OMP_NUM_THREADS environment is not set. Defaulting to 1 thread. (src/comm.cpp:98)
  using 1 OpenMP thread(s) per MPI task
Lattice spacing in x,y,z = 0.81649658 0.81649658 0.81649658
Created orthogonal box = (0 0 0) to (6.5319726 6.5319726 6.5319726)
  4 by 2 by 1 MPI processor grid
Created 512 atoms
  using lattice units in orthogonal box = (0 0 0) to (6.5319726 6.5319726 6.5319726)
  create_atoms CPU = 0.000 seconds
Generated 0 of 0 mixed pair_coeff terms from geometric mixing rule
Neighbor list info ...
  update: every = 1 steps, delay = 0 steps, check = yes
  max neighbors/atom: 2000, page size: 100000
  master list distance cutoff = 1.3
  ghost atom cutoff = 1.3
  binsize = 0.65, bins = 11 11 11
  1 neighbor lists, perpetual/occasional/extra = 1 0 0
  (1) pair lj/cut, perpetual
      attributes: half, newton on
      pair build: half/bin/atomonly/newton
      stencil: half/bin/2d
      bin: standard
Setting up Verlet run ...
  Unit style    : lj
  Current step  : 0
  Time step     : 0.01
Per MPI rank memory allocation (min/avg/max) = 3.049 | 3.049 | 3.049 Mbytes
   Step          Temp          E_pair         E_mol          TotEng         Press     
         0   3              162.16797      0              165.16211      11578.43     
[gr039:331931:0:331931] Caught signal 11 (Segmentation fault: address not mapped to object at address 0x570275ca90)
[gr039:331926:0:331926] Caught signal 11 (Segmentation fault: address not mapped to object at address 0xd1707a0)
[gr039:331927:0:331927] Caught signal 11 (Segmentation fault: address not mapped to object at address 0xf7cdd20)
[gr039:331929:0:331929] Caught signal 11 (Segmentation fault: invalid permissions for mapped object at address 0x15477e891000)
realloc(): invalid next size
[gr039:331926] *** Process received signal ***
[gr039:331926] Signal: Aborted (6)
[gr039:331926] Signal code:  (-6)
[gr039:331926] [ 0] /lib64/libpthread.so.0(+0x12b20)[0x146972761b20]
[gr039:331926] [ 1] /lib64/libc.so.6(gsignal+0x10f)[0x14696804737f]
[gr039:331926] [ 2] /lib64/libc.so.6(abort+0x127)[0x146968031db5]
[gr039:331926] [ 3] /lib64/libc.so.6(+0x7a4e7)[0x14696808a4e7]
[gr039:331926] [ 4] /lib64/libc.so.6(+0x815ec)[0x1469680915ec]
[gr039:331926] [ 5] /lib64/libc.so.6(+0x854fc)[0x1469680954fc]
[gr039:331926] [ 6] /lib64/libc.so.6(realloc+0x33b)[0x14696809667b]
[gr039:331926] [ 7] /lib64/libucs.so.0(+0x6ef0b)[0x146959e9ff0b]
[gr039:331926] [ 8] /lib64/libucs.so.0(+0xbc992)[0x146959eed992]
[gr039:331926] [ 9] /lib64/libucs.so.0(+0x946eb)[0x146959ec56eb]
[gr039:331926] [10] /lib64/libucs.so.0(+0x59406)[0x146959e8a406]
[gr039:331926] [11] /lib64/libucs.so.0(+0x71d27)[0x146959ea2d27]
[gr039:331926] [12] /lib64/libucs.so.0(+0x59bde)[0x146959e8abde]
[gr039:331926] [13] /lib64/libucs.so.0(ucs_debug_backtrace_create+0x49)[0x146959e8af39]
[gr039:331926] [14] /lib64/libucs.so.0(+0x5a4a4)[0x146959e8b4a4]
[gr039:331926] [15] /lib64/libucs.so.0(ucs_handle_error+0x2b0)[0x146959e8dc00]
[gr039:331926] [16] /lib64/libucs.so.0(+0x5cdec)[0x146959e8ddec]
[gr039:331926] [17] /lib64/libucs.so.0(+0x5cfba)[0x146959e8dfba]
[gr039:331926] [18] /lib64/libpthread.so.0(+0x12b20)[0x146972761b20]
[gr039:331926] [19] lmp[0x572e9c]
[gr039:331926] [20] lmp[0x569f9f]
[gr039:331926] [21] lmp[0x64a2c9]
[gr039:331926] [22] lmp[0x5e4b86]
[gr039:331926] [23] lmp[0x4f4b44]
[gr039:331926] [24] lmp[0x4f4f25]
[gr039:331926] [25] lmp[0x4d154a]
[gr039:331926] [26] /lib64/libc.so.6(__libc_start_main+0xf3)[0x146968033493]
[gr039:331926] [27] lmp[0x4d4b7e]
[gr039:331926] *** End of error message ***
--------------------------------------------------------------------------
Primary job  terminated normally, but 1 process returned
a non-zero exit code. Per user-direction, the job has been aborted.
--------------------------------------------------------------------------
--------------------------------------------------------------------------
mpirun noticed that process rank 2 with PID 331926 on node gr039 exited on signal 6 (Aborted).
--------------------------------------------------------------------------
